LAMMPS data file via write_data, version 7 Aug 2019, timestep = 0

11000 atoms
2 atom types
10450 bonds
2 bond types
19800 angles
3 angle types
28050 dihedrals
5 dihedral types

-5.0000000000000000e+00 1.0500000000000000e+02 xlo xhi
-5.0000000000000000e+00 9.5000000000000000e+01 ylo yhi
-5.0000000000000000e+00 4.5000000000000000e+01 zlo zhi

Masses

1 12.01
2 1.008

Pair Coeffs # lj/cut/coul/long

1 0.1094 3.39967
2 0.0157 2.64953

Bond Coeffs # harmonic

1 303.1 1.535
2 337.3 1.092

Angle Coeffs # harmonic

1 63.21 110.63
2 46.37 110.05
3 39.43 108.35

Dihedral Coeffs # harmonic

1 0.2 -1 1
2 0.25 -1 2
3 0.18 1 3
4 0.16 1 3
5 0.15 1 3

Atoms # full

17 1 2 3.8600000000000002e-02 -1.8120000000000001e+00 -1.2569999999999999e+00 -8.9900000000000002e-01 0 0 0
2217 111 2 3.8600000000000002e-02 -1.8120000000000001e+00 -1.2569999999999999e+00 9.1009999999999991e+00 0 0 0
4417 221 2 3.8600000000000002e-02 -1.8120000000000001e+00 -1.2569999999999999e+00 1.9100999999999999e+01 0 0 0
237 12 2 3.8600000000000002e-02 -1.8120000000000001e+00 8.7430000000000003e+00 -8.9900000000000002e-01 0 0 0
2437 122 2 3.8600000000000002e-02 -1.8120000000000001e+00 8.7430000000000003e+00 9.1009999999999991e+00 0 0 0
4637 232 2 3.8600000000000002e-02 -1.8120000000000001e+00 8.7430000000000003e+00 1.9100999999999999e+01 0 0 0
457 23 2 3.8600000000000002e-02 -1.8120000000000001e+00 1.8742999999999999e+01 -8.9900000000000002e-01 0 0 0
2657 133 2 3.8600000000000002e-02 -1.8120000000000001e+00 1.8742999999999999e+01 9.1009999999999991e+00 0 0 0
4857 243 2 3.8600000000000002e-02 -1.8120000000000001e+00 1.8742999999999999e+01 1.9100999999999999e+01 0 0 0
37 2 2 3.8600000000000002e-02 8.1880000000000006e+00 -1.2569999999999999e+00 -8.9900000000000002e-01 0 0 0
2237 112 2 3.8600000000000002e-02 8.1880000000000006e+00 -1.2569999999999999e+00 9.1009999999999991e+00 0 0 0
4437 222 2 3.8600000000000002e-02 8.1880000000000006e+00 -1.2569999999999999e+00 1.9100999999999999e+01 0 0 0
257 13 2 3.8600000000000002e-02 8.1880000000000006e+00 8.7430000000000003e+00 -8.9900000000000002e-01 0 0 0
2457 123 2 3.8600000000000002e-02 8.1880000000000006e+00 8.7430000000000003e+00 9.1009999999999991e+00 0 0 0
4657 233 2 3.8600000000000002e-02 8.1880000000000006e+00 8.7430000000000003e+00 1.9100999999999999e+01 0 0 0
477 24 2 3.8600000000000002e-02 8.1880000000000006e+00 1.8742999999999999e+01 -8.9900000000000002e-01 0 0 0
2677 134 2 3.8600000000000002e-02 8.1880000000000006e+00 1.8742999999999999e+01 9.1009999999999991e+00 0 0 0
4877 244 2 3.8600000000000002e-02 8.1880000000000006e+00 1.8742999999999999e+01 1.9100999999999999e+01 0 0 0
5 1 1 -8.0500000000000002e-02 -1.8660000000000001e+00 -5.9799999999999998e-01 0.0000000000000000e+00 0 0 0
16 1 2 3.8600000000000002e-02 -1.8120000000000001e+00 -1.2560000000000000e+00 9.0000000000000002e-01 0 0 0
18 1 2 3.2599999999999997e-02 -4.0620000000000003e+00 -5.6699999999999995e-01 0.0000000000000000e+00 0 0 0
2205 111 1 -8.0500000000000002e-02 -1.8660000000000001e+00 -5.9799999999999998e-01 1.0000000000000000e+01 0 0 0
2216 111 2 3.8600000000000002e-02 -1.8120000000000001e+00 -1.2560000000000000e+00 1.0900000000000000e+01 0 0 0
2218 111 2 3.2599999999999997e-02 -4.0620000000000003e+00 -5.6699999999999995e-01 1.0000000000000000e+01 0 0 0
225 12 1 -8.0500000000000002e-02 -1.8660000000000001e+00 9.4019999999999992e+00 0.0000000000000000e+00 0 0 0
236 12 2 3.8600000000000002e-02 -1.8120000000000001e+00 8.7439999999999998e+00 9.0000000000000002e-01 0 0 0
238 12 2 3.2599999999999997e-02 -4.0620000000000003e+00 9.4329999999999998e+00 0.0000000000000000e+00 0 0 0
2425 122 1 -8.0500000000000002e-02 -1.8660000000000001e+00 9.4019999999999992e+00 1.0000000000000000e+01 0 0 0
2436 122 2 3.8600000000000002e-02 -1.8120000000000001e+00 8.7439999999999998e+00 1.0900000000000000e+01 0 0 0
2438 122 2 3.2599999999999997e-02 -4.0620000000000003e+00 9.4329999999999998e+00 1.0000000000000000e+01 0 0 0
445 23 1 -8.0500000000000002e-02 -1.8660000000000001e+00 1.9402000000000001e+01 0.0000000000000000e+00 0 0 0
456 23 2 3.8600000000000002e-02 -1.8120000000000001e+00 1.8744000000000000e+01 9.0000000000000002e-01 0 0 0
458 23 2 3.2599999999999997e-02 -4.0620000000000003e+00 1.9433000000000000e+01 0.0000000000000000e+00 0 0 0
2645 133 1 -8.0500000000000002e-02 -1.8660000000000001e+00 1.9402000000000001e+01 1.0000000000000000e+01 0 0 0
2656 133 2 3.8600000000000002e-02 -1.8120000000000001e+00 1.8744000000000000e+01 1.0900000000000000e+01 0 0 0
2658 133 2 3.2599999999999997e-02 -4.0620000000000003e+00 1.9433000000000000e+01 1.0000000000000000e+01 0 0 0
25 2 1 -8.0500000000000002e-02 8.1340000000000003e+00 -5.9799999999999998e-01 0.0000000000000000e+00 0 0 0
36 2 2 3.8600000000000002e-02 8.1880000000000006e+00 -1.2560000000000000e+00 9.0000000000000002e-01 0 0 0
38 2 2 3.2599999999999997e-02 5.9379999999999997e+00 -5.6699999999999995e-01 0.0000000000000000e+00 0 0 0
2225 112 1 -8.0500000000000002e-02 8.1340000000000003e+00 -5.9799999999999998e-01 1.0000000000000000e+01 0 0 0
2236 112 2 3.8600000000000002e-02 8.1880000000000006e+00 -1.2560000000000000e+00 1.0900000000000000e+01 0 0 0
2238 112 2 3.2599999999999997e-02 5.9379999999999997e+00 -5.6699999999999995e-01 1.0000000000000000e+01 0 0 0
245 13 1 -8.0500000000000002e-02 8.1340000000000003e+00 9.4019999999999992e+00 0.0000000000000000e+00 0 0 0
256 13 2 3.8600000000000002e-02 8.1880000000000006e+00 8.7439999999999998e+00 9.0000000000000002e-01 0 0 0
258 13 2 3.2599999999999997e-02 5.9379999999999997e+00 9.4329999999999998e+00 0.0000000000000000e+00 0 0 0
2445 123 1 -8.0500000000000002e-02 8.1340000000000003e+00 9.4019999999999992e+00 1.0000000000000000e+01 0 0 0
2456 123 2 3.8600000000000002e-02 8.1880000000000006e+00 8.7439999999999998e+00 1.0900000000000000e+01 0 0 0
2458 123 2 3.2599999999999997e-02 5.9379999999999997e+00 9.4329999999999998e+00 1.0000000000000000e+01 0 0 0
465 24 1 -8.0500000000000002e-02 8.1340000000000003e+00 1.9402000000000001e+01 0.0000000000000000e+00 0 0 0
476 24 2 3.8600000000000002e-02 8.1880000000000006e+00 1.8744000000000000e+01 9.0000000000000002e-01 0 0 0
478 24 2 3.2599999999999997e-02 5.9379999999999997e+00 1.9433000000000000e+01 0.0000000000000000e+00 0 0 0
2665 134 1 -8.0500000000000002e-02 8.1340000000000003e+00 1.9402000000000001e+01 1.0000000000000000e+01 0 0 0
2676 134 2 3.8600000000000002e-02 8.1880000000000006e+00 1.8744000000000000e+01 1.0900000000000000e+01 0 0 0
2678 134 2 3.2599999999999997e-02 5.9379999999999997e+00 1.9433000000000000e+01 1.0000000000000000e+01 0 0 0
19 1 2 3.2599999999999997e-02 -3.3060000000000000e+00 7.9500000000000004e-01 -9.0100000000000002e-01 0 0 0
2219 111 2 3.2599999999999997e-02 -3.3060000000000000e+00 7.9500000000000004e-01 9.0990000000000002e+00 0 0 0
4419 221 2 3.2599999999999997e-02 -3.3060000000000000e+00 7.9500000000000004e-01 1.9099000000000000e+01 0 0 0
239 12 2 3.2599999999999997e-02 -3.3060000000000000e+00 1.0795000000000000e+01 -9.0100000000000002e-01 0 0 0
2439 122 2 3.2599999999999997e-02 -3.3060000000000000e+00 1.0795000000000000e+01 9.0990000000000002e+00 0 0 0
4639 232 2 3.2599999999999997e-02 -3.3060000000000000e+00 1.0795000000000000e+01 1.9099000000000000e+01 0 0 0
39 2 2 3.2599999999999997e-02 6.6940000000000000e+00 7.9500000000000004e-01 -9.0100000000000002e-01 0 0 0
2239 112 2 3.2599999999999997e-02 6.6940000000000000e+00 7.9500000000000004e-01 9.0990000000000002e+00 0 0 0
4439 222 2 3.2599999999999997e-02 6.6940000000000000e+00 7.9500000000000004e-01 1.9099000000000000e+01 0 0 0
259 13 2 3.2599999999999997e-02 6.6940000000000000e+00 1.0795000000000000e+01 -9.0100000000000002e-01 0 0 0
2459 123 2 3.2599999999999997e-02 6.6940000000000000e+00 1.0795000000000000e+01 9.0990000000000002e+00 0 0 0
4659 233 2 3.2599999999999997e-02 6.6940000000000000e+00 1.0795000000000000e+01 1.9099000000000000e+01 0 0 0
6 1 1 -9.2200000000000004e-02 -3.2069999999999999e+00 1.4799999999999999e-01 0.0000000000000000e+00 0 0 0
20 1 2 3.2599999999999997e-02 -3.3060000000000000e+00 7.9600000000000004e-01 9.0100000000000002e-01 0 0 0
2206 111 1 -9.2200000000000004e-02 -3.2069999999999999e+00 1.4799999999999999e-01 1.0000000000000000e+01 0 0 0
2220 111 2 3.2599999999999997e-02 -3.3060000000000000e+00 7.9600000000000004e-01 1.0901000000000000e+01 0 0 0
226 12 1 -9.2200000000000004e-02 -3.2069999999999999e+00 1.0148000000000000e+01 0.0000000000000000e+00 0 0 0
240 12 2 3.2599999999999997e-02 -3.3060000000000000e+00 1.0795999999999999e+01 9.0100000000000002e-01 0 0 0
2426 122 1 -9.2200000000000004e-02 -3.2069999999999999e+00 1.0148000000000000e+01 1.0000000000000000e+01 0 0 0
2440 122 2 3.2599999999999997e-02 -3.3060000000000000e+00 1.0795999999999999e+01 1.0901000000000000e+01 0 0 0
26 2 1 -9.2200000000000004e-02 6.7930000000000001e+00 1.4799999999999999e-01 0.0000000000000000e+00 0 0 0
40 2 2 3.2599999999999997e-02 6.6940000000000000e+00 7.9600000000000004e-01 9.0100000000000002e-01 0 0 0
2226 112 1 -9.2200000000000004e-02 6.7930000000000001e+00 1.4799999999999999e-01 1.0000000000000000e+01 0 0 0
2240 112 2 3.2599999999999997e-02 6.6940000000000000e+00 7.9600000000000004e-01 1.0901000000000000e+01 0 0 0
246 13 1 -9.2200000000000004e-02 6.7930000000000001e+00 1.0148000000000000e+01 0.0000000000000000e+00 0 0 0
260 13 2 3.2599999999999997e-02 6.6940000000000000e+00 1.0795999999999999e+01 9.0100000000000002e-01 0 0 0
2446 123 1 -9.2200000000000004e-02 6.7930000000000001e+00 1.0148000000000000e+01 1.0000000000000000e+01 0 0 0
2460 123 2 3.2599999999999997e-02 6.6940000000000000e+00 1.0795999999999999e+01 1.0901000000000000e+01 0 0 0
13 1 2 3.8600000000000002e-02 7.3199999999999998e-01 -1.0300000000000000e+00 -8.9900000000000002e-01 0 0 0
2213 111 2 3.8600000000000002e-02 7.3199999999999998e-01 -1.0300000000000000e+00 9.1009999999999991e+00 0 0 0
4413 221 2 3.8600000000000002e-02 7.3199999999999998e-01 -1.0300000000000000e+00 1.9100999999999999e+01 0 0 0
233 12 2 3.8600000000000002e-02 7.3199999999999998e-01 8.9700000000000006e+00 -8.9900000000000002e-01 0 0 0
2433 122 2 3.8600000000000002e-02 7.3199999999999998e-01 8.9700000000000006e+00 9.1009999999999991e+00 0 0 0
4633 232 2 3.8600000000000002e-02 7.3199999999999998e-01 8.9700000000000006e+00 1.9100999999999999e+01 0 0 0
453 23 2 3.8600000000000002e-02 7.3199999999999998e-01 1.8969999999999999e+01 -8.9900000000000002e-01 0 0 0
2653 133 2 3.8600000000000002e-02 7.3199999999999998e-01 1.8969999999999999e+01 9.1009999999999991e+00 0 0 0
4853 243 2 3.8600000000000002e-02 7.3199999999999998e-01 1.8969999999999999e+01 1.9100999999999999e+01 0 0 0
33 2 2 3.8600000000000002e-02 1.0731999999999999e+01 -1.0300000000000000e+00 -8.9900000000000002e-01 0 0 0
2233 112 2 3.8600000000000002e-02 1.0731999999999999e+01 -1.0300000000000000e+00 9.1009999999999991e+00 0 0 0
4433 222 2 3.8600000000000002e-02 1.0731999999999999e+01 -1.0300000000000000e+00 1.9100999999999999e+01 0 0 0
253 13 2 3.8600000000000002e-02 1.0731999999999999e+01 8.9700000000000006e+00 -8.9900000000000002e-01 0 0 0
2453 123 2 3.8600000000000002e-02 1.0731999999999999e+01 8.9700000000000006e+00 9.1009999999999991e+00 0 0 0
4653 233 2 3.8600000000000002e-02 1.0731999999999999e+01 8.9700000000000006e+00 1.9100999999999999e+01 0 0 0
473 24 2 3.8600000000000002e-02 1.0731999999999999e+01 1.8969999999999999e+01 -8.9900000000000002e-01 0 0 0
2673 134 2 3.8600000000000002e-02 1.0731999999999999e+01 1.8969999999999999e+01 9.1009999999999991e+00 0 0 0
4873 244 2 3.8600000000000002e-02 1.0731999999999999e+01 1.8969999999999999e+01 1.9100999999999999e+01 0 0 0
3 1 1 -7.9500000000000001e-02 6.7300000000000004e-01 -3.7200000000000000e-01 0.0000000000000000e+00 0 0 0
12 1 2 3.8600000000000002e-02 7.3199999999999998e-01 -1.0289999999999999e+00 9.0000000000000002e-01 0 0 0
2203 111 1 -7.9500000000000001e-02 6.7300000000000004e-01 -3.7200000000000000e-01 1.0000000000000000e+01 0 0 0
2212 111 2 3.8600000000000002e-02 7.3199999999999998e-01 -1.0289999999999999e+00 1.0900000000000000e+01 0 0 0
223 12 1 -7.9500000000000001e-02 6.7300000000000004e-01 9.6280000000000001e+00 0.0000000000000000e+00 0 0 0
232 12 2 3.8600000000000002e-02 7.3199999999999998e-01 8.9710000000000001e+00 9.0000000000000002e-01 0 0 0
2423 122 1 -7.9500000000000001e-02 6.7300000000000004e-01 9.6280000000000001e+00 1.0000000000000000e+01 0 0 0
2432 122 2 3.8600000000000002e-02 7.3199999999999998e-01 8.9710000000000001e+00 1.0900000000000000e+01 0 0 0
443 23 1 -7.9500000000000001e-02 6.7300000000000004e-01 1.9628000000000000e+01 0.0000000000000000e+00 0 0 0
452 23 2 3.8600000000000002e-02 7.3199999999999998e-01 1.8971000000000000e+01 9.0000000000000002e-01 0 0 0
2643 133 1 -7.9500000000000001e-02 6.7300000000000004e-01 1.9628000000000000e+01 1.0000000000000000e+01 0 0 0
2652 133 2 3.8600000000000002e-02 7.3199999999999998e-01 1.8971000000000000e+01 1.0900000000000000e+01 0 0 0
23 2 1 -7.9500000000000001e-02 1.0673000000000000e+01 -3.7200000000000000e-01 0.0000000000000000e+00 0 0 0
32 2 2 3.8600000000000002e-02 1.0731999999999999e+01 -1.0289999999999999e+00 9.0000000000000002e-01 0 0 0
2223 112 1 -7.9500000000000001e-02 1.0673000000000000e+01 -3.7200000000000000e-01 1.0000000000000000e+01 0 0 0
2232 112 2 3.8600000000000002e-02 1.0731999999999999e+01 -1.0289999999999999e+00 1.0900000000000000e+01 0 0 0
243 13 1 -7.9500000000000001e-02 1.0673000000000000e+01 9.6280000000000001e+00 0.0000000000000000e+00 0 0 0
252 13 2 3.8600000000000002e-02 1.0731999999999999e+01 8.9710000000000001e+00 9.0000000000000002e-01 0 0 0
2443 123 1 -7.9500000000000001e-02 1.0673000000000000e+01 9.6280000000000001e+00 1.0000000000000000e+01 0 0 0
2452 123 2 3.8600000000000002e-02 1.0731999999999999e+01 8.9710000000000001e+00 1.0900000000000000e+01 0 0 0
463 24 1 -7.9500000000000001e-02 1.0673000000000000e+01 1.9628000000000000e+01 0.0000000000000000e+00 0 0 0
472 24 2 3.8600000000000002e-02 1.0731999999999999e+01 1.8971000000000000e+01 9.0000000000000002e-01 0 0 0
2663 134 1 -7.9500000000000001e-02 1.0673000000000000e+01 1.9628000000000000e+01 1.0000000000000000e+01 0 0 0
2672 134 2 3.8600000000000002e-02 1.0731999999999999e+01 1.8971000000000000e+01 1.0900000000000000e+01 0 0 0
14 1 2 3.8600000000000002e-02 -7.3199999999999998e-01 1.0289999999999999e+00 -9.0000000000000002e-01 0 0 0
2214 111 2 3.8600000000000002e-02 -7.3199999999999998e-01 1.0289999999999999e+00 9.0999999999999996e+00 0 0 0
4414 221 2 3.8600000000000002e-02 -7.3199999999999998e-01 1.0289999999999999e+00 1.9100000000000001e+01 0 0 0
234 12 2 3.8600000000000002e-02 -7.3199999999999998e-01 1.1029000000000000e+01 -9.0000000000000002e-01 0 0 0
2434 122 2 3.8600000000000002e-02 -7.3199999999999998e-01 1.1029000000000000e+01 9.0999999999999996e+00 0 0 0
4634 232 2 3.8600000000000002e-02 -7.3199999999999998e-01 1.1029000000000000e+01 1.9100000000000001e+01 0 0 0
34 2 2 3.8600000000000002e-02 9.2680000000000007e+00 1.0289999999999999e+00 -9.0000000000000002e-01 0 0 0
2234 112 2 3.8600000000000002e-02 9.2680000000000007e+00 1.0289999999999999e+00 9.0999999999999996e+00 0 0 0
4434 222 2 3.8600000000000002e-02 9.2680000000000007e+00 1.0289999999999999e+00 1.9100000000000001e+01 0 0 0
254 13 2 3.8600000000000002e-02 9.2680000000000007e+00 1.1029000000000000e+01 -9.0000000000000002e-01 0 0 0
2454 123 2 3.8600000000000002e-02 9.2680000000000007e+00 1.1029000000000000e+01 9.0999999999999996e+00 0 0 0
4654 233 2 3.8600000000000002e-02 9.2680000000000007e+00 1.1029000000000000e+01 1.9100000000000001e+01 0 0 0
4 1 1 -7.9500000000000001e-02 -6.7300000000000004e-01 3.7200000000000000e-01 0.0000000000000000e+00 0 0 0
15 1 2 3.8600000000000002e-02 -7.3199999999999998e-01 1.0300000000000000e+00 8.9900000000000002e-01 0 0 0
2204 111 1 -7.9500000000000001e-02 -6.7300000000000004e-01 3.7200000000000000e-01 1.0000000000000000e+01 0 0 0
2215 111 2 3.8600000000000002e-02 -7.3199999999999998e-01 1.0300000000000000e+00 1.0899000000000001e+01 0 0 0
224 12 1 -7.9500000000000001e-02 -6.7300000000000004e-01 1.0372000000000000e+01 0.0000000000000000e+00 0 0 0
235 12 2 3.8600000000000002e-02 -7.3199999999999998e-01 1.1029999999999999e+01 8.9900000000000002e-01 0 0 0
2424 122 1 -7.9500000000000001e-02 -6.7300000000000004e-01 1.0372000000000000e+01 1.0000000000000000e+01 0 0 0
2435 122 2 3.8600000000000002e-02 -7.3199999999999998e-01 1.1029999999999999e+01 1.0899000000000001e+01 0 0 0
24 2 1 -7.9500000000000001e-02 9.3270000000000000e+00 3.7200000000000000e-01 0.0000000000000000e+00 0 0 0
35 2 2 3.8600000000000002e-02 9.2680000000000007e+00 1.0300000000000000e+00 8.9900000000000002e-01 0 0 0
2224 112 1 -7.9500000000000001e-02 9.3270000000000000e+00 3.7200000000000000e-01 1.0000000000000000e+01 0 0 0
2235 112 2 3.8600000000000002e-02 9.2680000000000007e+00 1.0300000000000000e+00 1.0899000000000001e+01 0 0 0
244 13 1 -7.9500000000000001e-02 9.3270000000000000e+00 1.0372000000000000e+01 0.0000000000000000e+00 0 0 0
255 13 2 3.8600000000000002e-02 9.2680000000000007e+00 1.1029999999999999e+01 8.9900000000000002e-01 0 0 0
2444 123 1 -7.9500000000000001e-02 9.3270000000000000e+00 1.0372000000000000e+01 1.0000000000000000e+01 0 0 0
2455 123 2 3.8600000000000002e-02 9.2680000000000007e+00 1.1029999999999999e+01 1.0899000000000001e+01 0 0 0
9 1 2 3.2599999999999997e-02 3.3060000000000000e+00 -7.9600000000000004e-01 -9.0100000000000002e-01 0 0 0
2209 111 2 3.2599999999999997e-02 3.3060000000000000e+00 -7.9600000000000004e-01 9.0990000000000002e+00 0 0 0
4409 221 2 3.2599999999999997e-02 3.3060000000000000e+00 -7.9600000000000004e-01 1.9099000000000000e+01 0 0 0
229 12 2 3.2599999999999997e-02 3.3060000000000000e+00 9.2040000000000006e+00 -9.0100000000000002e-01 0 0 0
2429 122 2 3.2599999999999997e-02 3.3060000000000000e+00 9.2040000000000006e+00 9.0990000000000002e+00 0 0 0
4629 232 2 3.2599999999999997e-02 3.3060000000000000e+00 9.2040000000000006e+00 1.9099000000000000e+01 0 0 0
449 23 2 3.2599999999999997e-02 3.3060000000000000e+00 1.9204000000000001e+01 -9.0100000000000002e-01 0 0 0
2649 133 2 3.2599999999999997e-02 3.3060000000000000e+00 1.9204000000000001e+01 9.0990000000000002e+00 0 0 0
4849 243 2 3.2599999999999997e-02 3.3060000000000000e+00 1.9204000000000001e+01 1.9099000000000000e+01 0 0 0
29 2 2 3.2599999999999997e-02 1.3306000000000001e+01 -7.9600000000000004e-01 -9.0100000000000002e-01 0 0 0
2229 112 2 3.2599999999999997e-02 1.3306000000000001e+01 -7.9600000000000004e-01 9.0990000000000002e+00 0 0 0
4429 222 2 3.2599999999999997e-02 1.3306000000000001e+01 -7.9600000000000004e-01 1.9099000000000000e+01 0 0 0
249 13 2 3.2599999999999997e-02 1.3306000000000001e+01 9.2040000000000006e+00 -9.0100000000000002e-01 0 0 0
2449 123 2 3.2599999999999997e-02 1.3306000000000001e+01 9.2040000000000006e+00 9.0990000000000002e+00 0 0 0
4649 233 2 3.2599999999999997e-02 1.3306000000000001e+01 9.2040000000000006e+00 1.9099000000000000e+01 0 0 0
469 24 2 3.2599999999999997e-02 1.3306000000000001e+01 1.9204000000000001e+01 -9.0100000000000002e-01 0 0 0
2669 134 2 3.2599999999999997e-02 1.3306000000000001e+01 1.9204000000000001e+01 9.0990000000000002e+00 0 0 0
4869 244 2 3.2599999999999997e-02 1.3306000000000001e+01 1.9204000000000001e+01 1.9099000000000000e+01 0 0 0
1 1 1 -9.2200000000000004e-02 3.2069999999999999e+00 -1.4799999999999999e-01 0.0000000000000000e+00 0 0 0
8 1 2 3.2599999999999997e-02 3.3060000000000000e+00 -7.9500000000000004e-01 9.0100000000000002e-01 0 0 0
2201 111 1 -9.2200000000000004e-02 3.2069999999999999e+00 -1.4799999999999999e-01 1.0000000000000000e+01 0 0 0
2208 111 2 3.2599999999999997e-02 3.3060000000000000e+00 -7.9500000000000004e-01 1.0901000000000000e+01 0 0 0
221 12 1 -9.2200000000000004e-02 3.2069999999999999e+00 9.8520000000000003e+00 0.0000000000000000e+00 0 0 0
228 12 2 3.2599999999999997e-02 3.3060000000000000e+00 9.2050000000000001e+00 9.0100000000000002e-01 0 0 0
2421 122 1 -9.2200000000000004e-02 3.2069999999999999e+00 9.8520000000000003e+00 1.0000000000000000e+01 0 0 0
2428 122 2 3.2599999999999997e-02 3.3060000000000000e+00 9.2050000000000001e+00 1.0901000000000000e+01 0 0 0
441 23 1 -9.2200000000000004e-02 3.2069999999999999e+00 1.9852000000000000e+01 0.0000000000000000e+00 0 0 0
448 23 2 3.2599999999999997e-02 3.3060000000000000e+00 1.9204999999999998e+01 9.0100000000000002e-01 0 0 0
2641 133 1 -9.2200000000000004e-02 3.2069999999999999e+00 1.9852000000000000e+01 1.0000000000000000e+01 0 0 0
2648 133 2 3.2599999999999997e-02 3.3060000000000000e+00 1.9204999999999998e+01 1.0901000000000000e+01 0 0 0
21 2 1 -9.2200000000000004e-02 1.3207000000000001e+01 -1.4799999999999999e-01 0.0000000000000000e+00 0 0 0
28 2 2 3.2599999999999997e-02 1.3306000000000001e+01 -7.9500000000000004e-01 9.0100000000000002e-01 0 0 0
2221 112 1 -9.2200000000000004e-02 1.3207000000000001e+01 -1.4799999999999999e-01 1.0000000000000000e+01 0 0 0
2228 112 2 3.2599999999999997e-02 1.3306000000000001e+01 -7.9500000000000004e-01 1.0901000000000000e+01 0 0 0
241 13 1 -9.2200000000000004e-02 1.3207000000000001e+01 9.8520000000000003e+00 0.0000000000000000e+00 0 0 0
248 13 2 3.2599999999999997e-02 1.3306000000000001e+01 9.2050000000000001e+00 9.0100000000000002e-01 0 0 0
2441 123 1 -9.2200000000000004e-02 1.3207000000000001e+01 9.8520000000000003e+00 1.0000000000000000e+01 0 0 0
2448 123 2 3.2599999999999997e-02 1.3306000000000001e+01 9.2050000000000001e+00 1.0901000000000000e+01 0 0 0
461 24 1 -9.2200000000000004e-02 1.3207000000000001e+01 1.9852000000000000e+01 0.0000000000000000e+00 0 0 0
468 24 2 3.2599999999999997e-02 1.3306000000000001e+01 1.9204999999999998e+01 9.0100000000000002e-01 0 0 0
2661 134 1 -9.2200000000000004e-02 1.3207000000000001e+01 1.9852000000000000e+01 1.0000000000000000e+01 0 0 0
2668 134 2 3.2599999999999997e-02 1.3306000000000001e+01 1.9204999999999998e+01 1.0901000000000000e+01 0 0 0
10 1 2 3.8600000000000002e-02 1.8120000000000001e+00 1.2560000000000000e+00 -9.0000000000000002e-01 0 0 0
2210 111 2 3.8600000000000002e-02 1.8120000000000001e+00 1.2560000000000000e+00 9.0999999999999996e+00 0 0 0
4410 221 2 3.8600000000000002e-02 1.8120000000000001e+00 1.2560000000000000e+00 1.9100000000000001e+01 0 0 0
230 12 2 3.8600000000000002e-02 1.8120000000000001e+00 1.1256000000000000e+01 -9.0000000000000002e-01 0 0 0
2430 122 2 3.8600000000000002e-02 1.8120000000000001e+00 1.1256000000000000e+01 9.0999999999999996e+00 0 0 0
4630 232 2 3.8600000000000002e-02 1.8120000000000001e+00 1.1256000000000000e+01 1.9100000000000001e+01 0 0 0
30 2 2 3.8600000000000002e-02 1.1811999999999999e+01 1.2560000000000000e+00 -9.0000000000000002e-01 0 0 0
2230 112 2 3.8600000000000002e-02 1.1811999999999999e+01 1.2560000000000000e+00 9.0999999999999996e+00 0 0 0
4430 222 2 3.8600000000000002e-02 1.1811999999999999e+01 1.2560000000000000e+00 1.9100000000000001e+01 0 0 0
250 13 2 3.8600000000000002e-02 1.1811999999999999e+01 1.1256000000000000e+01 -9.0000000000000002e-01 0 0 0
2450 123 2 3.8600000000000002e-02 1.1811999999999999e+01 1.1256000000000000e+01 9.0999999999999996e+00 0 0 0
4650 233 2 3.8600000000000002e-02 1.1811999999999999e+01 1.1256000000000000e+01 1.9100000000000001e+01 0 0 0
2 1 1 -8.0500000000000002e-02 1.8660000000000001e+00 5.9799999999999998e-01 0.0000000000000000e+00 0 0 0
7 1 2 3.2599999999999997e-02 4.0620000000000003e+00 5.6699999999999995e-01 0.0000000000000000e+00 0 0 0
11 1 2 3.8600000000000002e-02 1.8120000000000001e+00 1.2569999999999999e+00 8.9900000000000002e-01 0 0 0
2202 111 1 -8.0500000000000002e-02 1.8660000000000001e+00 5.9799999999999998e-01 1.0000000000000000e+01 0 0 0
2207 111 2 3.2599999999999997e-02 4.0620000000000003e+00 5.6699999999999995e-01 1.0000000000000000e+01 0 0 0
2211 111 2 3.8600000000000002e-02 1.8120000000000001e+00 1.2569999999999999e+00 1.0899000000000001e+01 0 0 0
222 12 1 -8.0500000000000002e-02 1.8660000000000001e+00 1.0598000000000001e+01 0.0000000000000000e+00 0 0 0
227 12 2 3.2599999999999997e-02 4.0620000000000003e+00 1.0567000000000000e+01 0.0000000000000000e+00 0 0 0
231 12 2 3.8600000000000002e-02 1.8120000000000001e+00 1.1257000000000000e+01 8.9900000000000002e-01 0 0 0
2422 122 1 -8.0500000000000002e-02 1.8660000000000001e+00 1.0598000000000001e+01 1.0000000000000000e+01 0 0 0
2427 122 2 3.2599999999999997e-02 4.0620000000000003e+00 1.0567000000000000e+01 1.0000000000000000e+01 0 0 0
2431 122 2 3.8600000000000002e-02 1.8120000000000001e+00 1.1257000000000000e+01 1.0899000000000001e+01 0 0 0
22 2 1 -8.0500000000000002e-02 1.1866000000000000e+01 5.9799999999999998e-01 0.0000000000000000e+00 0 0 0
31 2 2 3.8600000000000002e-02 1.1811999999999999e+01 1.2569999999999999e+00 8.9900000000000002e-01 0 0 0
2222 112 1 -8.0500000000000002e-02 1.1866000000000000e+01 5.9799999999999998e-01 1.0000000000000000e+01 0 0 0
2231 112 2 3.8600000000000002e-02 1.1811999999999999e+01 1.2569999999999999e+00 1.0899000000000001e+01 0 0 0
242 13 1 -8.0500000000000002e-02 1.1866000000000000e+01 1.0598000000000001e+01 0.0000000000000000e+00 0 0 0
251 13 2 3.8600000000000002e-02 1.1811999999999999e+01 1.1257000000000000e+01 8.9900000000000002e-01 0 0 0
2442 123 1 -8.0500000000000002e-02 1.1866000000000000e+01 1.0598000000000001e+01 1.0000000000000000e+01 0 0 0
2451 123 2 3.8600000000000002e-02 1.1811999999999999e+01 1.1257000000000000e+01 1.0899000000000001e+01 0 0 0
6617 331 2 3.8600000000000002e-02 -1.8120000000000001e+00 -1.2569999999999999e+00 2.9100999999999999e+01 0 0 0
8817 441 2 3.8600000000000002e-02 -1.8120000000000001e+00 -1.2569999999999999e+00 3.9100999999999999e+01 0 0 0
6837 342 2 3.8600000000000002e-02 -1.8120000000000001e+00 8.7430000000000003e+00 2.9100999999999999e+01 0 0 0
9037 452 2 3.8600000000000002e-02 -1.8120000000000001e+00 8.7430000000000003e+00 3.9100999999999999e+01 0 0 0
7057 353 2 3.8600000000000002e-02 -1.8120000000000001e+00 1.8742999999999999e+01 2.9100999999999999e+01 0 0 0
9257 463 2 3.8600000000000002e-02 -1.8120000000000001e+00 1.8742999999999999e+01 3.9100999999999999e+01 0 0 0
6637 332 2 3.8600000000000002e-02 8.1880000000000006e+00 -1.2569999999999999e+00 2.9100999999999999e+01 0 0 0
8837 442 2 3.8600000000000002e-02 8.1880000000000006e+00 -1.2569999999999999e+00 3.9100999999999999e+01 0 0 0
6857 343 2 3.8600000000000002e-02 8.1880000000000006e+00 8.7430000000000003e+00 2.9100999999999999e+01 0 0 0
9057 453 2 3.8600000000000002e-02 8.1880000000000006e+00 8.7430000000000003e+00 3.9100999999999999e+01 0 0 0
7077 354 2 3.8600000000000002e-02 8.1880000000000006e+00 1.8742999999999999e+01 2.9100999999999999e+01 0 0 0
9277 464 2 3.8600000000000002e-02 8.1880000000000006e+00 1.8742999999999999e+01 3.9100999999999999e+01 0 0 0
4405 221 1 -8.0500000000000002e-02 -1.8660000000000001e+00 -5.9799999999999998e-01 2.0000000000000000e+01 0 0 0
4416 221 2 3.8600000000000002e-02 -1.8120000000000001e+00 -1.2560000000000000e+00 2.0899999999999999e+01 0 0 0
4418 221 2 3.2599999999999997e-02 -4.0620000000000003e+00 -5.6699999999999995e-01 2.0000000000000000e+01 0 0 0
6605 331 1 -8.0500000000000002e-02 -1.8660000000000001e+00 -5.9799999999999998e-01 3.0000000000000000e+01 0 0 0
6616 331 2 3.8600000000000002e-02 -1.8120000000000001e+00 -1.2560000000000000e+00 3.0899999999999999e+01 0 0 0
6618 331 2 3.2599999999999997e-02 -4.0620000000000003e+00 -5.6699999999999995e-01 3.0000000000000000e+01 0 0 0
8805 441 1 -8.0500000000000002e-02 -1.8660000000000001e+00 -5.9799999999999998e-01 4.0000000000000000e+01 0 0 0
8816 441 2 3.8600000000000002e-02 -1.8120000000000001e+00 -1.2560000000000000e+00 4.0899999999999999e+01 0 0 0
8818 441 2 3.2599999999999997e-02 -4.0620000000000003e+00 -5.6699999999999995e-01 4.0000000000000000e+01 0 0 0
4625 232 1 -8.0500000000000002e-02 -1.8660000000000001e+00 9.4019999999999992e+00 2.0000000000000000e+01 0 0 0
4636 232 2 3.8600000000000002e-02 -1.8120000000000001e+00 8.7439999999999998e+00 2.0899999999999999e+01 0 0 0
4638 232 2 3.2599999999999997e-02 -4.0620000000000003e+00 9.4329999999999998e+00 2.0000000000000000e+01 0 0 0
6825 342 1 -8.0500000000000002e-02 -1.8660000000000001e+00 9.4019999999999992e+00 3.0000000000000000e+01 0 0 0
6836 342 2 3.8600000000000002e-02 -1.8120000000000001e+00 8.7439999999999998e+00 3.0899999999999999e+01 0 0 0
6838 342 2 3.2599999999999997e-02 -4.0620000000000003e+00 9.4329999999999998e+00 3.0000000000000000e+01 0 0 0
9025 452 1 -8.0500000000000002e-02 -1.8660000000000001e+00 9.4019999999999992e+00 4.0000000000000000e+01 0 0 0
9036 452 2 3.8600000000000002e-02 -1.8120000000000001e+00 8.7439999999999998e+00 4.0899999999999999e+01 0 0 0
9038 452 2 3.2599999999999997e-02 -4.0620000000000003e+00 9.4329999999999998e+00 4.0000000000000000e+01 0 0 0
4845 243 1 -8.0500000000000002e-02 -1.8660000000000001e+00 1.9402000000000001e+01 2.0000000000000000e+01 0 0 0
4856 243 2 3.8600000000000002e-02 -1.8120000000000001e+00 1.8744000000000000e+01 2.0899999999999999e+01 0 0 0
4858 243 2 3.2599999999999997e-02 -4.0620000000000003e+00 1.9433000000000000e+01 2.0000000000000000e+01 0 0 0
7045 353 1 -8.0500000000000002e-02 -1.8660000000000001e+00 1.9402000000000001e+01 3.0000000000000000e+01 0 0 0
7056 353 2 3.8600000000000002e-02 -1.8120000000000001e+00 1.8744000000000000e+01 3.0899999999999999e+01 0 0 0
7058 353 2 3.2599999999999997e-02 -4.0620000000000003e+00 1.9433000000000000e+01 3.0000000000000000e+01 0 0 0
9245 463 1 -8.0500000000000002e-02 -1.8660000000000001e+00 1.9402000000000001e+01 4.0000000000000000e+01 0 0 0
9256 463 2 3.8600000000000002e-02 -1.8120000000000001e+00 1.8744000000000000e+01 4.0899999999999999e+01 0 0 0
9258 463 2 3.2599999999999997e-02 -4.0620000000000003e+00 1.9433000000000000e+01 4.0000000000000000e+01 0 0 0
4425 222 1 -8.0500000000000002e-02 8.1340000000000003e+00 -5.9799999999999998e-01 2.0000000000000000e+01 0 0 0
4436 222 2 3.8600000000000002e-02 8.1880000000000006e+00 -1.2560000000000000e+00 2.0899999999999999e+01 0 0 0
4438 222 2 3.2599999999999997e-02 5.9379999999999997e+00 -5.6699999999999995e-01 2.0000000000000000e+01 0 0 0
6625 332 1 -8.0500000000000002e-02 8.1340000000000003e+00 -5.9799999999999998e-01 3.0000000000000000e+01 0 0 0