LAMMPS (7 Aug 2019)
units			real
atom_style		full
bond_style		harmonic
angle_style             harmonic
dihedral_style		harmonic
pair_style              lj/cut/coul/long 10.0
pair_modify             mix arithmetic tail yes
kspace_style  	        pppm 1e-04
boundary      	        p p p
special_bonds 		amber

read_data	    	data.n-Hexane
  orthogonal box = (-5 -5 -5) to (5 5 5)
  3 by 4 by 4 MPI processor grid
  reading atoms ...
  20 atoms
  scanning bonds ...
  4 = max bonds/atom
  scanning angles ...
  6 = max angles/atom
  scanning dihedrals ...
  11 = max dihedrals/atom
  reading bonds ...
  19 bonds
  reading angles ...
  36 angles
  reading dihedrals ...
  51 dihedrals
  4 = max # of 1-2 neighbors
  6 = max # of 1-3 neighbors
  12 = max # of 1-4 neighbors
  16 = max # of special neighbors
  special bonds CPU = 0.00572181 secs
  read_data CPU = 0.0694149 secs

replicate		11 10 5
  orthogonal box = (-5 -5 -5) to (105 95 45)
  6 by 4 by 2 MPI processor grid
  11000 atoms
  10450 bonds
  19800 angles
  28050 dihedrals
  4 = max # of 1-2 neighbors
  6 = max # of 1-3 neighbors
  12 = max # of 1-4 neighbors
  16 = max # of special neighbors
  special bonds CPU = 0.000862837 secs
  replicate CPU = 0.00718212 secs

write_data		Data.Replicated
PPPM initialization ...
  using 12-bit tables for long-range coulomb (../kspace.cpp:323)
  G vector (1/distance) = 0.123359
  grid = 12 12 6
  stencil order = 5
  estimated absolute RMS force accuracy = 0.0279239
  estimated relative force accuracy = 8.40921e-05
  using double precision KISS FFT
  3d grid and FFT values/proc = 448 24
Neighbor list info ...
  update every 1 steps, delay 10 steps, check yes
  max neighbors/atom: 2000, page size: 100000
  master list distance cutoff = 12
  ghost atom cutoff = 12
  binsize = 6, bins = 19 17 9
  1 neighbor lists, perpetual/occasional/extra = 1 0 0
  (1) pair lj/cut/coul/long, perpetual
      attributes: half, newton on
      pair build: half/bin/newton
      stencil: half/bin/3d/newton
      bin: standard

Total wall time: 0:00:00
