LAMMPS data file for ****

6 atoms
5 bonds
7 angles
3 dihedrals
0 impropers

4 atom types
3 bond types
3 angle types
1 dihedral types

-2 2 xlo xhi
-2 2 ylo yhi
-2 2 zlo zhi

Masses

1 12.01
2 16.0
3 1.008
4 1.008

Pair Coeffs

1 0.10939999991572773 3.399669508450741
2 0.2104000002486992 3.066473387458142
3 0.01570000009846142 2.4713530426421655
4 0.0 0.0

Bond Coeffs

1 316.7 1.4233
2 330.6 1.0969
3 371.4 0.973

Angle Coeffs

1 47.38 107.26004608361897
2 50.93 110.260047369346
3 39.24 108.46004659790978

Dihedral Coeffs

1 0.166666667 1 3

Atoms

1	1	1	0.1167	0.141	0.269	-0.244
2	1	2	-0.5988	-0.527	-0.195	0.918
3	1	3	0.0287	0.137	1.38	-0.237
4	1	3	0.0287	-0.398	-0.119	-1.136
5	1	3	0.0287	1.184	-0.118	-0.225
6	1	4	0.396	-0.533	-1.155	0.918

Bonds

1 2 1 3
2 2 1 4
3 2 1 5
4 3 2 6
5 1 1 2

Angles

1 1 1 2 6
2 2 2 1 3
3 2 2 1 4
4 2 2 1 5
5 3 3 1 4
6 3 3 1 5
7 3 4 1 5

Dihedrals

1 1 3 1 2 6
2 1 4 1 2 6
3 1 5 1 2 6

