LAMMPS (7 Aug 2019)
units			real
atom_style		full
bond_style		harmonic
angle_style             harmonic
dihedral_style		harmonic
pair_style              lj/cut/coul/long 14.0
pair_modify             mix arithmetic
pair_modify 	        tail yes
kspace_style  	        pppm 1e-04
boundary      	        p p p
special_bonds 		amber

read_data	    	data.Methanol
  orthogonal box = (-2 -2 -2) to (2 2 2)
  4 by 3 by 4 MPI processor grid
  reading atoms ...
  6 atoms
  scanning bonds ...
  4 = max bonds/atom
  scanning angles ...
  6 = max angles/atom
  scanning dihedrals ...
  3 = max dihedrals/atom
  reading bonds ...
  5 bonds
  reading angles ...
  7 angles
  reading dihedrals ...
  3 dihedrals
  4 = max # of 1-2 neighbors
  3 = max # of 1-3 neighbors
  4 = max # of 1-4 neighbors
  5 = max # of special neighbors
  special bonds CPU = 0.00756788 secs
  read_data CPU = 0.0725911 secs

replicate		10 10 10
  orthogonal box = (-2 -2 -2) to (38 38 38)
  3 by 4 by 4 MPI processor grid
  6000 atoms
  5000 bonds
  7000 angles
  3000 dihedrals
  4 = max # of 1-2 neighbors
  3 = max # of 1-3 neighbors
  4 = max # of 1-4 neighbors
  5 = max # of special neighbors
  special bonds CPU = 0.000725031 secs
  replicate CPU = 0.00813508 secs

write_data		Data.Replicated
PPPM initialization ...
  using 12-bit tables for long-range coulomb (../kspace.cpp:323)
  G vector (1/distance) = 0.175467
  grid = 12 12 12
  stencil order = 5
  estimated absolute RMS force accuracy = 0.0163006
  estimated relative force accuracy = 4.90888e-05
  using double precision KISS FFT
  3d grid and FFT values/proc = 576 48
Neighbor list info ...
  update every 1 steps, delay 10 steps, check yes
  max neighbors/atom: 2000, page size: 100000
  master list distance cutoff = 16
  ghost atom cutoff = 16
  binsize = 8, bins = 5 5 5
  1 neighbor lists, perpetual/occasional/extra = 1 0 0
  (1) pair lj/cut/coul/long, perpetual
      attributes: half, newton on
      pair build: half/bin/newton
      stencil: half/bin/3d/newton
      bin: standard

Total wall time: 0:00:01
