TACC:  Starting up job 7724407 
TACC:  Starting parallel tasks... 
LAMMPS (7 Aug 2019)
Reading data file ...
  orthogonal box = (-26.3493 -10.5397 -5.26986) to (116.349 46.5397 23.2699)
  12 by 4 by 2 MPI processor grid
  reading atoms ...
  20000 atoms
  reading velocities ...
  20000 velocities
  scanning bonds ...
  4 = max bonds/atom
  scanning angles ...
  6 = max angles/atom
  scanning dihedrals ...
  11 = max dihedrals/atom
  reading bonds ...
  19000 bonds
  reading angles ...
  36000 angles
  reading dihedrals ...
  51000 dihedrals
Finding 1-2 1-3 1-4 neighbors ...
  special bond factors lj:   0          0          0.5       
  special bond factors coul: 0          0          0.833333  
  4 = max # of 1-2 neighbors
  6 = max # of 1-3 neighbors
  12 = max # of 1-4 neighbors
  16 = max # of special neighbors
  special bonds CPU = 0.012177 secs
  read_data CPU = 0.265793 secs
PPPM initialization ...
  using 12-bit tables for long-range coulomb (../kspace.cpp:323)
  G vector (1/distance) = 0.146231
  grid = 20 8 6
  stencil order = 5
  estimated absolute RMS force accuracy = 0.0312614
  estimated relative force accuracy = 9.41427e-05
  using double precision KISS FFT
  3d grid and FFT values/proc = 392 20
Neighbor list info ...
  update every 1 steps, delay 10 steps, check yes
  max neighbors/atom: 2000, page size: 100000
  master list distance cutoff = 12
  ghost atom cutoff = 12
  binsize = 6, bins = 24 10 5
  1 neighbor lists, perpetual/occasional/extra = 1 0 0
  (1) pair lj/cut/coul/long, perpetual
      attributes: half, newton on
      pair build: half/bin/newton
      stencil: half/bin/3d/newton
      bin: standard
Setting up Verlet run ...
  Unit style    : real
  Current step  : 0
  Time step     : 1
Per MPI rank memory allocation (min/avg/max) = 14.12 | 14.15 | 14.51 Mbytes
Step Time Atoms Temp Press Volume TotEng E_pair E_mol E_vdwl E_coul E_long E_bond E_angle Enthalpy PotEng KinEng v_Density Lx Ly Lz CPU 
       0            0    20000    293.54117    107.84563    232460.71    31462.361   -3524.6644    17488.092   -4343.9867    2487.2261   -1667.9038    5832.1993    8766.2008     31827.98    13963.427    17498.934   0.61577226    142.69865    57.079459     28.53973            0 
    1000         1000    20000    294.98088   -96.912343    232460.71     31705.15   -3526.5839    17646.974   -4341.5773    2482.8944   -1667.9009    5975.2131     8812.756    31376.598     14120.39     17584.76   0.61577226    142.69865    57.079459     28.53973     2.298631 
    2000         2000    20000    294.36906    828.06897    232460.71    31764.645   -3485.9817     17702.34    -4299.361    2481.3127   -1667.9334    5946.1044     8862.563    34571.966    14216.358    17548.288   0.61577226    142.69865    57.079459     28.53973     4.599581 
    3000         3000    20000    293.41477    91.178015    232460.71    31869.668   -3498.0551    17876.323   -4313.5355    2483.4256   -1667.9452    6000.2614    8965.0596    32178.779    14378.268    17491.399   0.61577226    142.69865    57.079459     28.53973    6.9375269 
    4000         4000    20000    296.50503    118.70509    232460.71    31782.769   -3543.2247    17650.374   -4359.2479    2483.9096   -1667.8864    5927.0754    8837.8175    32185.203     14107.15     17675.62   0.61577226    142.69865    57.079459     28.53973    9.3562109 
    5000         5000    20000    293.25701     588.9073    232460.71    31560.147   -3488.0223    17566.175   -4303.2295    2483.1288   -1667.9216    5923.4237    8762.9263    33556.661    14078.152    17481.995   0.61577226    142.69865    57.079459     28.53973    11.728314 
    6000         6000    20000    293.53519    577.36832    232460.71    31567.249   -3409.1586     17477.83   -4224.0648    2482.8609   -1667.9548    5806.1544    8755.1974    33524.644    14068.671    17498.578   0.61577226    142.69865    57.079459     28.53973    14.066921 
    7000         7000    20000    296.43141    235.53591    232460.71     31817.63   -3505.9472    17652.346   -4320.8016    2482.7792   -1667.9248    5814.0815     8924.566    32616.144    14146.399    17671.231   0.61577226    142.69865    57.079459     28.53973     16.43808 
    8000         8000    20000    297.92578    758.90273    232460.71    32023.247   -3473.1508    17736.083   -4287.8283    2482.6362   -1667.9588    5950.5459    8877.6515     34596.08    14262.932    17760.315   0.61577226    142.69865    57.079459     28.53973    18.814987 
    9000         9000    20000    293.13665   -213.82434    232460.71    31709.647   -3535.3044    17770.132   -4349.3251    2481.9389   -1667.9182    5883.3915    8991.6415     30984.74    14234.827     17474.82   0.61577226    142.69865    57.079459     28.53973    21.118151 
   10000        10000    20000    293.37791   -52.555476    232460.71    31500.078    -3501.554     17512.43    -4316.995    2483.3787   -1667.9377    5848.2271    8800.6452    31321.904    14010.876    17489.202   0.61577226    142.69865    57.079459     28.53973    23.442876 
   11000        11000    20000    297.67973    288.69801    232460.71    31942.372   -3505.6392    17702.364   -4320.4171    2482.7285   -1667.9505    5912.0656    8898.8459    32921.116    14196.725    17745.647   0.61577226    142.69865    57.079459     28.53973    25.776096 
   12000        12000    20000    295.95575    -408.2247    232460.71    31893.385   -3499.5724    17750.083   -4315.0335     2483.368   -1667.9068    5983.5896    8856.7117    30509.422     14250.51    17642.875   0.61577226    142.69865    57.079459     28.53973    28.067734 
   13000        13000    20000    293.82361   -183.28072    232460.71    31670.542   -3531.9971    17686.767   -4348.3844    2484.3043   -1667.9171    5892.5256    8903.7283    31049.183     14154.77    17515.772   0.61577226    142.69865    57.079459     28.53973    30.418832 
   14000        14000    20000    297.53815   -34.127916    232460.71     31876.24   -3524.3647    17663.397   -4340.3299    2483.8674   -1667.9022    5958.0994    8804.5084    31760.539    14139.033    17737.207   0.61577226    142.69865    57.079459     28.53973    32.776241 
   15000        15000    20000    294.61009    931.82799    232460.71    31739.189   -3436.5334    17613.066   -4252.1301    2483.5365   -1667.9398    5901.9964    8817.7583    34898.273    14176.533    17562.656   0.61577226    142.69865    57.079459     28.53973    35.107018 
   16000        16000    20000    294.68631   -125.01841    232460.71     31691.52    -3522.782    17647.102   -4338.7882    2483.9017   -1667.8954    5882.0907    8882.0611    31267.682     14124.32      17567.2   0.61577226    142.69865    57.079459     28.53973    37.486401 
   17000        17000    20000    291.18722    52.398591    232460.71    31487.306    -3458.771    17587.469   -4273.9983    2483.1292   -1667.9019    5835.1227    8839.9047    31664.948    14128.698    17358.608   0.61577226    142.69865    57.079459     28.53973    39.875997 
   18000        18000    20000    294.08799   -339.87112    232460.71    31667.865   -3556.9633    17693.297    -4373.281    2484.2353   -1667.9176    5913.9095    8880.8544    30515.634    14136.334    17531.532   0.61577226    142.69865    57.079459     28.53973    42.191586 
   19000        19000    20000     293.8416    255.34126    232460.71     31882.65   -3485.0552    17850.861   -4299.0549    2481.9388   -1667.9391    5988.8072    8965.2131    32748.308    14365.806    17516.844   0.61577226    142.69865    57.079459     28.53973    44.518996 
   20000        20000    20000    294.24293    535.00744    232460.71    31625.307   -3497.6128    17582.152   -4314.0348    2484.3834   -1667.9613    5806.0401    8873.1133     33439.09    14084.539    17540.768   0.61577226    142.69865    57.079459     28.53973    46.851428 
   21000        21000    20000    294.32037    -241.5543    232460.71    31917.585   -3505.4549    17877.655   -4322.3818    2484.8666   -1667.9396    5951.0023    9039.4362    31098.668      14372.2    17545.385   0.61577226    142.69865    57.079459     28.53973    49.235116 
   22000        22000    20000    294.80545    37.873385    232460.71    31707.391   -3457.2055    17590.294   -4274.6252    2485.4004   -1667.9807    5889.2421    8784.6771    31835.789    14133.088    17574.302   0.61577226    142.69865    57.079459     28.53973    51.620072 
   23000        23000    20000    296.62067   -164.53273    232460.71     31756.64   -3533.2551    17607.382   -4348.5268    2483.1785   -1667.9068    5895.2565    8848.0783    31198.841    14074.127    17682.513   0.61577226    142.69865    57.079459     28.53973    53.958215 
   24000        24000    20000     294.4422   -417.43962    232460.71    31803.779   -3500.9416    17752.073   -4313.6152    2480.6015   -1667.9279    5946.6125    8916.4928    30388.575    14251.131    17552.648   0.61577226    142.69865    57.079459     28.53973    56.306081 
   25000        25000    20000    296.49729   -1075.1938    232460.71    31699.794   -3521.1418    17545.777   -4337.3025    2484.0783   -1667.9176    5915.4973    8769.0231     28054.67    14024.635    17675.158   0.61577226    142.69865    57.079459     28.53973    58.680555 
   26000        26000    20000    294.87841   -98.879373    232460.71    31677.858   -3529.4745    17628.681   -4346.1021    2484.5254   -1667.8978    5930.4707    8808.3596    31342.637    14099.207    17578.651   0.61577226    142.69865    57.079459     28.53973    61.064937 
   27000        27000    20000    295.61397   -454.19246    232460.71    31643.312   -3503.9385     17524.75   -4318.7781    2482.7777   -1667.9381    5854.4467    8822.4532    30103.509    14020.812    17622.501   0.61577226    142.69865    57.079459     28.53973    63.427705 
   28000        28000    20000    295.66729   -28.043379    232460.71    31544.883   -3567.0267    17486.231   -4378.3016    2479.2175   -1667.9426    5905.1741    8747.6601     31449.81    13919.204    17625.679   0.61577226    142.69865    57.079459     28.53973    65.779476 
   29000        29000    20000     295.8472   -386.83317    232460.71    31729.473   -3524.2019    17617.271   -4337.6426     2481.354   -1667.9133    5950.6386    8812.3225    30418.031    14093.069    17636.404   0.61577226    142.69865    57.079459     28.53973    68.133339 
   30000        30000    20000    296.64029    79.268819    232460.71    31890.555   -3501.5581    17708.431   -4315.4246    2481.8207   -1667.9541    5929.9013    8870.5106    32159.292    14206.873    17683.683   0.61577226    142.69865    57.079459     28.53973     70.52582 
   31000        31000    20000    294.96531    351.34558    232460.71    31534.862   -3520.5368    17471.567   -4337.6582    2485.0432   -1667.9218    5878.6506    8718.8681    32725.994     13951.03    17583.832   0.61577226    142.69865    57.079459     28.53973    72.863601 
   32000        32000    20000    293.31114     20.50261    232460.71    31716.292   -3502.7745    17733.845   -4313.8509    2478.9841   -1667.9078    6018.0679    8779.9802      31785.8     14231.07    17485.221   0.61577226    142.69865    57.079459     28.53973    75.170058 
   33000        33000    20000     294.9151    1004.4268    232460.71    31702.484    -3440.088    17561.733   -4256.0634    2483.8819   -1667.9066    5861.7345    8854.6946    35107.692    14121.645    17580.839   0.61577226    142.69865    57.079459     28.53973    77.521711 
   34000        34000    20000     293.5919   -76.172042    232460.71    31420.663   -3541.7849    17460.489   -4357.0452    2483.1417   -1667.8814    5835.9782    8780.3211    31162.424    13918.704    17501.959   0.61577226    142.69865    57.079459     28.53973    79.863861 
   35000        35000    20000    297.08739   -119.79641    232460.71    31836.517   -3501.0471    17627.228   -4313.2956      2480.16   -1667.9116    5880.9014    8881.2414    31430.383    14126.181    17710.336   0.61577226    142.69865    57.079459     28.53973    82.175247 
   36000        36000    20000    294.57923    93.298824    232460.71    31663.494   -3509.9419    17612.619   -4327.8025    2485.7889   -1667.9283     5798.489    8950.6527    31979.796    14102.678    17560.817   0.61577226    142.69865    57.079459     28.53973     84.53683 
   37000        37000    20000    296.24569    196.59753    232460.71    31929.432   -3500.6434    17769.916   -4318.1026    2485.4007   -1667.9415    5898.2033    8992.1192    32595.937    14269.272     17660.16   0.61577226    142.69865    57.079459     28.53973    86.897706 
   38000        38000    20000    296.13238    86.914903    232460.71    31788.959    -3474.909    17610.463   -4290.0788    2483.1192   -1667.9494    5875.1818    8880.7026    32083.618    14135.554    17653.405   0.61577226    142.69865    57.079459     28.53973    89.294182 
   39000        39000    20000    291.83824   -226.19252    232460.71    31454.655   -3573.6146    17630.853   -4389.6394    2483.9616   -1667.9367    5901.1426    8869.2532    30687.817    14057.238    17397.417   0.61577226    142.69865    57.079459     28.53973    91.683456 
   40000        40000    20000    297.33964   -56.151547    232460.71    31861.874   -3473.2688     17609.77   -4289.1623    2483.8678   -1667.9743    5878.1228    8856.4947    31671.509    14136.501    17725.373   0.61577226    142.69865    57.079459     28.53973    94.124522 
   41000        41000    20000    294.51861    150.82199    232460.71    31700.121   -3493.1472    17636.065   -4307.6299    2482.3942   -1667.9115    5940.6571     8813.609    32211.437    14142.918    17557.203   0.61577226    142.69865    57.079459     28.53973    96.559774 
   42000        42000    20000     295.4496    317.40187    232460.71    31731.105   -3520.1876     17638.59   -4335.1404    2482.8966   -1667.9437    5800.0781      8902.12    32807.161    14118.403    17612.702   0.61577226    142.69865    57.079459     28.53973    98.919449 
   43000        43000    20000     298.2301    490.71725    232460.71    31926.343   -3504.0819    17651.968   -4322.3725     2486.212   -1667.9215     5914.946    8854.0925    33589.973    14147.886    17778.457   0.61577226    142.69865    57.079459     28.53973    101.28471 
   44000        44000    20000    294.41497    121.23236    232460.71    31647.324   -3497.9712    17594.271   -4312.4664     2482.397   -1667.9018    5805.3626    8857.7667    32058.326    14096.299    17551.025   0.61577226    142.69865    57.079459     28.53973    103.64311 
   45000        45000    20000    294.99986    -255.1834    232460.71    31795.243   -3493.4526    17702.803   -4309.3693    2483.8407   -1667.9239    5954.3675    8859.4337     30930.12    14209.351    17585.892   0.61577226    142.69865    57.079459     28.53973    106.06467 
   46000        46000    20000    295.83025    395.33567    232460.71    31842.306   -3525.5641    17732.477    -4341.987    2484.3266   -1667.9037    5950.1128    8902.3138    33182.574    14206.912    17635.394   0.61577226    142.69865    57.079459     28.53973    108.44608 
   47000        47000    20000    294.81787   -419.27391    232460.71    31546.346   -3495.2021    17466.505   -4306.8264    2479.5404    -1667.916    5902.3713    8702.9428    30124.923    13971.303    17575.043   0.61577226    142.69865    57.079459     28.53973    110.77871 
   48000        48000    20000    294.83563   -324.91101    232460.71    31710.192   -3542.0313    17676.122   -4354.9814    2480.8833   -1667.9332    5961.1106     8816.812    30608.679    14134.091    17576.101   0.61577226    142.69865    57.079459     28.53973    113.14652 
   49000        49000    20000    294.38326   -173.74991    232460.71    31745.739   -3491.7556    17688.361   -4306.7649    2482.9687   -1667.9594    5832.8366    8943.2251    31156.692    14196.605    17549.134   0.61577226    142.69865    57.079459     28.53973    115.45341 
   50000        50000    20000    294.13757   -373.30673    232460.71     31494.58   -3493.6424    17453.734   -4309.8419    2484.1004   -1667.9009     5899.164     8692.971    30228.995    13960.092    17534.488   0.61577226    142.69865    57.079459     28.53973    117.80807 
   51000        51000    20000    294.75229    207.92842    232460.71    31583.256   -3545.1584    17557.281   -4363.3414    2486.1013   -1667.9183    5837.1395     8848.619    32288.176    14012.123    17571.133   0.61577226    142.69865    57.079459     28.53973    120.15006 
   52000        52000    20000    298.14124   -122.93376    232460.71    31798.213   -3505.7615    17530.815   -4321.0349    2483.1939   -1667.9204    5901.9913    8769.4197    31381.443    14025.053     17773.16   0.61577226    142.69865    57.079459     28.53973    122.49624 
   53000        53000    20000     295.4637    288.68491    232460.71    31574.218   -3540.2159    17500.892   -4355.8739    2483.6022   -1667.9443    5797.8837    8819.4755    32552.918    13960.676    17613.543   0.61577226    142.69865    57.079459     28.53973    124.80334 
   54000        54000    20000    295.12183    195.27883    232460.71    31612.347   -3508.6791    17527.863   -4325.3822    2484.6403   -1667.9372     5834.974    8792.0194    32274.381    14019.184    17593.163   0.61577226    142.69865    57.079459     28.53973    127.18192 
   55000        55000    20000     293.1625   -742.04482    232460.71    31603.275   -3518.3567    17645.271   -4334.4613    2484.0264   -1667.9218    5853.2539    8886.6571    29087.593    14126.914    17476.361   0.61577226    142.69865    57.079459     28.53973    129.52636 
   56000        56000    20000    295.33393    180.30738    232460.71    31912.581   -3443.8059     17750.58   -4258.9898    2483.1202   -1667.9363    5935.0991    8924.3022     32523.86    14306.775    17605.807   0.61577226    142.69865    57.079459     28.53973    131.88227 
   57000        57000    20000    295.66141   -678.18726    232460.71    31722.634   -3522.3673    17619.673   -4337.3288     2482.877   -1667.9155    5854.4156    8879.4038    29423.443    14097.305    17625.328   0.61577226    142.69865    57.079459     28.53973    134.23575 
   58000        58000    20000     294.3994    -454.1719    232460.71     31610.66   -3520.1298    17580.694   -4330.9385    2478.7567    -1667.948    5865.4637     8815.627    30070.926    14060.564    17550.096   0.61577226    142.69865    57.079459     28.53973    136.56201 
   59000        59000    20000    296.21496    222.23719    232460.71    31808.121   -3495.9115    17645.705   -4311.4219    2483.4553   -1667.9449    5818.5347    8938.6504     32561.55    14149.794    17658.327   0.61577226    142.69865    57.079459     28.53973      138.924 
   60000        60000    20000    293.52965   -179.97663    232460.71    31711.353   -3564.9344     17778.04   -4380.1913    2483.1315   -1667.8746    6033.3495    8856.1911    31101.196    14213.106    17498.248   0.61577226    142.69865    57.079459     28.53973    141.30567 
   61000        61000    20000    293.61849   -10.695417    232460.71    31601.926   -3548.6202    17647.002   -4363.8787    2483.1156   -1667.8571    5970.4923    8826.5201    31565.666    14098.382    17503.544   0.61577226    142.69865    57.079459     28.53973    143.68301 
   62000        62000    20000    293.87086     321.0942    232460.71    31708.155   -3519.4292    17708.995   -4334.1375    2482.5545   -1667.8461    5915.4291     8917.814    32796.728    14189.566    17518.588   0.61577226    142.69865    57.079459     28.53973    146.00624 
   63000        63000    20000    296.85313   -729.22244    232460.71    31773.303   -3553.1798    17630.111   -4368.0366     2482.691   -1667.8342    5955.0226    8833.1163    29301.092    14076.931    17696.371   0.61577226    142.69865    57.079459     28.53973    148.35166 
   64000        64000    20000    293.51659    116.65367    232460.71    31592.097   -3501.6275    17596.256   -4319.7746    2486.0861    -1667.939    5904.8968    8845.7806    31987.577    14094.628    17497.469   0.61577226    142.69865    57.079459     28.53973    150.68942 
   65000        65000    20000    294.60686   -86.198869    232460.71    31781.118   -3495.8291    17714.483    -4313.847    2485.9503   -1667.9323    5917.3915    8873.9623    31488.886    14218.654    17562.463   0.61577226    142.69865    57.079459     28.53973    153.02188 
   66000        66000    20000    296.91998    117.50366    232460.71    32054.482   -3444.3912    17798.517   -4260.5398    2484.0616   -1667.9129    5963.3837    8930.7319    32452.843    14354.126    17700.356   0.61577226    142.69865    57.079459     28.53973    155.34241 
   67000        67000    20000    294.86022    529.55087    232460.71    31632.457   -3524.2599     17579.15   -4341.1773    2484.8432   -1667.9258    5858.2817    8868.7765    33427.741     14054.89    17577.567   0.61577226    142.69865    57.079459     28.53973    157.69197 
   68000        68000    20000    295.77485   -185.80418    232460.71    31698.597   -3511.1632    17577.668   -4326.3146    2483.0577   -1667.9063    5911.8568    8805.1304    31068.683    14066.505    17632.091   0.61577226    142.69865    57.079459     28.53973    160.01818 
   69000        69000    20000    297.35053   -543.82404    232460.71    31994.084   -3525.4871    17793.548   -4342.6803    2485.1226   -1667.9295    5911.3817    8944.2741    30150.411    14268.061    17726.023   0.61577226    142.69865    57.079459     28.53973    162.34195 
   70000        70000    20000    295.49544   -33.181295    232460.71    31857.259   -3529.4763      17771.3   -4344.0225     2482.443   -1667.8967    5881.7129    8951.9076    31744.768    14241.824    17615.435   0.61577226    142.69865    57.079459     28.53973    164.66176 
   71000        71000    20000    296.19946   -786.39098    232460.71    31695.424   -3544.6082    17582.629   -4355.3349    2478.6538    -1667.927    5914.8833    8742.7362    29029.401    14038.021    17657.404   0.61577226    142.69865    57.079459     28.53973       166.99 
   72000        72000    20000    294.33476       320.93    232460.71    31550.782   -3544.1916    17548.731   -4360.4207    2484.2122   -1667.9831    5888.2171    8826.2078    32638.799    14004.539    17546.243   0.61577226    142.69865    57.079459     28.53973    169.34739 
   73000        73000    20000    292.85187    192.89726    232460.71    31635.782   -3519.6454    17697.584   -4338.1515    2486.4314   -1667.9253    5943.1215    8840.5165    32289.742    14177.939    17457.843   0.61577226    142.69865    57.079459     28.53973     171.6809 
   74000        74000    20000     293.1933     301.0936    232460.71    31601.433   -3489.1427    17612.379   -4304.0451    2482.8468   -1667.9444    5937.4913    8793.5029    32622.201    14123.236    17478.197   0.61577226    142.69865    57.079459     28.53973    173.96561 
   75000        75000    20000    296.53092    222.23513    232460.71    31663.595   -3525.9619    17512.394   -4339.7964    2481.7017   -1667.8672    5775.0193    8842.6503    32417.017    13986.432    17677.163   0.61577226    142.69865    57.079459     28.53973    176.32034 
   76000        76000    20000    295.56434   -450.68301    232460.71    31801.873   -3552.1408    17734.472   -4366.8608    2482.6473   -1667.9273    5908.0742    8914.8589    30273.967    14182.331    17619.542   0.61577226    142.69865    57.079459     28.53973    178.62886 
   77000        77000    20000     293.3978   -45.064635    232460.71    31706.763   -3504.5124    17720.887   -4318.7373     2482.134   -1667.9091    5860.8622    8922.3085    31553.985    14216.375    17490.388   0.61577226    142.69865    57.079459     28.53973    180.99696 
   78000        78000    20000     296.3204   -248.79132    232460.71     31671.09   -3528.4634     17534.94   -4344.9858    2484.4347   -1667.9123    5869.5609     8784.532    30827.637    14006.477    17664.613   0.61577226    142.69865    57.079459     28.53973    183.34063 
   79000        79000    20000     295.5165   -242.33947    232460.71    31606.526   -3522.2157    17512.051   -4336.3786    2482.0379    -1667.875    5840.8077    8766.6012    30784.946    13989.835     17616.69   0.61577226    142.69865    57.079459     28.53973    185.65333 
   80000        80000    20000    295.88084   -34.190806    232460.71    31735.353   -3523.3944    17620.338    -4339.149     2483.611   -1667.8564    5827.6173    8886.6022     31619.44    14096.944     17638.41   0.61577226    142.69865    57.079459     28.53973    188.00884 
   81000        81000    20000    297.05476   -65.269159    232460.71    31802.826    -3493.757    17588.192   -4308.1151     2482.318   -1667.9599    5856.2644    8852.5162     31581.55    14094.435    17708.391   0.61577226    142.69865    57.079459     28.53973    190.37372 
   82000        82000    20000    293.46349   -396.09798    232460.71    31569.818    -3516.026     17591.54   -4330.5634    2482.4564    -1667.919     5865.543    8851.0032    30226.966    14075.514    17494.303   0.61577226    142.69865    57.079459     28.53973    192.73813 
   83000        83000    20000    294.03747   -115.07621    232460.71    31622.272   -3504.0228    17597.775   -4322.9003    2486.8028   -1667.9252    5829.2984    8875.2866    31232.141    14093.752     17528.52   0.61577226    142.69865    57.079459     28.53973    195.09177 
   84000        84000    20000    293.69809   -51.606949    232460.71    31571.772   -3522.8784    17586.362   -4338.4415    2483.4889   -1667.9259    5825.9556    8825.0246    31396.814    14063.483    17508.289   0.61577226    142.69865    57.079459     28.53973    197.47348 
   85000        85000    20000    294.64037    231.93942    232460.71    31849.252   -3471.8925    17756.684   -4283.9069    2479.8946   -1667.8802    5993.1777    8881.3292    32635.574    14284.791    17564.461   0.61577226    142.69865    57.079459     28.53973    199.83178 
   86000        86000    20000    296.24215    -259.7034    232460.71    31701.627   -3555.3294    17597.008   -4371.2085    2483.8197   -1667.9406    5910.3816     8805.579     30821.18    14041.678    17659.949   0.61577226    142.69865    57.079459     28.53973    202.21846 
   87000        87000    20000      296.829    651.34733    232460.71    31893.763   -3495.5363    17694.366   -4311.1265    2483.5072    -1667.917    6011.2202     8785.018    34101.961     14198.83    17694.933   0.61577226    142.69865    57.079459     28.53973    204.64599 
   88000        88000    20000    296.33488   -558.05012    232460.71    31783.663   -3529.0619    17647.248   -4344.5067    2483.3434   -1667.8985    5907.3876    8858.3437    29891.761    14118.186    17665.476   0.61577226    142.69865    57.079459     28.53973     207.1047 
   89000        89000    20000    291.13243   -502.37194    232460.71    31454.929   -3500.6242    17600.211    -4316.018    2483.2865   -1667.8926    5893.1094    8835.2011    29751.787    14099.587    17355.342   0.61577226    142.69865    57.079459     28.53973    209.52482 
   90000        90000    20000    293.39023    240.08422    232460.71    31592.885   -3510.7233    17613.672   -4325.6926    2482.8436   -1667.8743    5840.5033    8910.2309    32406.819    14102.949    17489.936   0.61577226    142.69865    57.079459     28.53973    211.88755 
   91000        91000    20000    295.57864    147.25028    232460.71    31662.246   -3482.4417    17524.293   -4293.4632    2478.9361   -1667.9146     5829.902    8817.8855    32161.454    14041.852    17620.395   0.61577226    142.69865    57.079459     28.53973    214.32102 
   92000        92000    20000    299.07257   -300.54562    232460.71    32228.874   -3460.5991    17860.794   -4274.3263    2481.7003   -1667.9731    6012.5564    8955.5199    31209.964    14400.195    17828.679   0.61577226    142.69865    57.079459     28.53973    216.66461 
   93000        93000    20000     293.9758    172.40621    232460.71    31590.798   -3523.0378    17588.991   -4340.0023     2484.906   -1667.9415    5926.7223     8758.046     32175.29    14065.954    17524.844   0.61577226    142.69865    57.079459     28.53973    218.97699 
   94000        94000    20000    295.01724   -383.41953    232460.71    31683.726   -3526.3574    17623.155   -4341.5019     2483.042   -1667.8974    5834.4215    8917.0699    30383.856    14096.798    17586.928   0.61577226    142.69865    57.079459     28.53973    221.29004 
   95000        95000    20000    297.02389    88.939204    232460.71    31735.611    -3487.224    17516.284   -4305.6116    2486.3132   -1667.9256    5833.3598    8841.2235    32037.133     14029.06    17706.551   0.61577226    142.69865    57.079459     28.53973    223.59124 
   96000        96000    20000     294.5088   -287.79502    232460.71    31670.855   -3525.9329     17640.17   -4338.5024    2480.4786   -1667.9091    5869.8186    8896.2789    30695.172    14114.237    17556.618   0.61577226    142.69865    57.079459     28.53973    225.92611 
   97000        97000    20000    293.72266    164.33542    232460.71    31598.963   -3500.4305     17589.64   -4315.2107    2482.7223    -1667.942    5934.3209     8795.804    32156.093    14089.209    17509.754   0.61577226    142.69865    57.079459     28.53973    228.25422 
   98000        98000    20000    295.72254    234.39362    232460.71    31697.615   -3565.0099    17633.652   -4379.4679    2482.4393   -1667.9813    5906.0414    8830.8452    32492.257    14068.642    17628.973   0.61577226    142.69865    57.079459     28.53973    230.59776 
   99000        99000    20000    294.99128    -438.1517    232460.71    31733.017   -3536.0565    17683.693   -4351.4803    2483.3359   -1667.9121    5931.1399    8853.9747    30247.594    14147.636     17585.38   0.61577226    142.69865    57.079459     28.53973    232.92607 
  100000       100000    20000    296.27827   -218.49236    232460.71    31791.852   -3487.8141    17617.564   -4303.0053    2483.1099   -1667.9187    5969.8104    8803.0167    31051.119     14129.75    17662.102   0.61577226    142.69865    57.079459     28.53973    235.27947 
  101000       101000    20000    294.34252   -202.08788    232460.71     31776.58   -3540.3284    17770.203   -4354.8578    2482.4814    -1667.952    5889.1194    9007.2996    31091.462    14229.875    17546.705   0.61577226    142.69865    57.079459     28.53973    237.57966 
  102000       102000    20000     296.9713    113.04447    232460.71    31900.857   -3445.1002    17642.542   -4261.0207      2483.89   -1667.9694    5928.2775    8853.0076    32284.101    14197.442    17703.415   0.61577226    142.69865    57.079459     28.53973    239.88542 
  103000       103000    20000    294.35064   -157.58816    232460.71     31836.86   -3481.9491     17771.62   -4294.9047    2480.9471   -1667.9915    5912.5165    8937.6288    31302.604    14289.671    17547.189   0.61577226    142.69865    57.079459     28.53973    242.20192 
  104000       104000    20000     293.0302   -235.85922    232460.71    31554.442   -3521.9445    17607.913   -4334.7414    2480.7469     -1667.95    5901.0616    8829.3023    30754.832    14085.968    17468.474   0.61577226    142.69865    57.079459     28.53973    244.53913 
  105000       105000    20000    294.03333   -357.24751    232460.71    31882.525   -3509.0024    17863.254   -4324.3268    2483.2528   -1667.9284    6059.3588    8915.4224    30671.384    14354.251    17528.274   0.61577226    142.69865    57.079459     28.53973    246.94255 
  106000       106000    20000     292.6188   -148.93298    232460.71    31626.359   -3500.9418    17683.352   -4315.1855    2482.1696   -1667.9258    5946.2736    8835.2761    31121.446     14182.41    17443.949   0.61577226    142.69865    57.079459     28.53973    249.32863 
  107000       107000    20000    293.94577   -82.140205    232460.71    31526.552   -3563.6027    17567.101   -4377.0033    2481.3164   -1667.9158    5829.9075    8891.6497     31248.08    14003.498    17523.054   0.61577226    142.69865    57.079459     28.53973     251.6324 
  108000       108000    20000    295.00415    32.420588    232460.71    31761.458    -3503.065    17678.376   -4321.0039    2485.8575   -1667.9186    5970.7158    8788.7913    31871.371    14175.311    17586.147   0.61577226    142.69865    57.079459     28.53973    253.91589 
  109000       109000    20000    292.31238   -219.25642    232460.71    31472.657   -3500.2637    17547.238   -4318.5283    2486.1836    -1667.919    5934.5811     8721.246    30729.333    14046.975    17425.682   0.61577226    142.69865    57.079459     28.53973    256.21407 
  110000       110000    20000    300.97282    59.404834    232460.71    32424.728   -3413.6679    17896.437   -4228.5682     2482.817   -1667.9167    5941.1218    9058.7898    32626.122    14482.769    17941.959   0.61577226    142.69865    57.079459     28.53973    258.56519 
  111000       111000    20000    295.23392    375.76698    232460.71    31673.549   -3533.9898    17607.694   -4345.9869     2479.944   -1667.9469    5853.5657    8884.1614    32947.474    14073.704    17599.845   0.61577226    142.69865    57.079459     28.53973    260.88366 
  112000       112000    20000    298.60975    433.81673    232460.71    32053.337   -3455.8543    17708.103   -4273.2127    2485.3086   -1667.9502    5973.8538    8872.9495    33524.063    14252.249    17801.089   0.61577226    142.69865    57.079459     28.53973     263.2027 
  113000       113000    20000    294.87471    392.13721    232460.71    31737.831   -3529.0803    17688.481    -4344.768    2483.6465   -1667.9588     5862.816    8882.3431    33067.255      14159.4    17578.431   0.61577226    142.69865    57.079459     28.53973     265.5314 
  114000       114000    20000    293.88933    176.36938    232460.71    31611.804   -3458.5606    17550.676   -4271.6512      2481.05   -1667.9595    5861.6965    8761.5131    32209.732    14092.115    17519.689   0.61577226    142.69865    57.079459     28.53973    267.86466 
  115000       115000    20000    295.03498    42.712591    232460.71    31688.016   -3514.5765    17614.608   -4330.8837     2484.284   -1667.9768     5901.016    8777.6111    31832.821    14100.031    17587.985   0.61577226    142.69865    57.079459     28.53973    270.17801 
  116000       116000    20000     297.8864   -306.95153    232460.71    31748.862   -3456.8574    17447.752   -4270.0059    2481.0989   -1667.9504    5799.9426    8774.7249    30708.235    13990.895    17757.967   0.61577226    142.69865    57.079459     28.53973    272.51479 
  117000       117000    20000    297.53254    -293.4747    232460.71    31959.964    -3488.551    17711.643   -4301.9013    2481.3077   -1667.9573    5918.3055    8873.1039    30965.026    14223.092    17736.873   0.61577226    142.69865    57.079459     28.53973    274.84408 
  118000       118000    20000    293.97099    58.992123    232460.71    31571.918   -3498.8735    17546.235   -4314.6237    2483.6669   -1667.9167    5834.0823    8800.5627    31771.914    14047.361    17524.557   0.61577226    142.69865    57.079459     28.53973    277.17829 
  119000       119000    20000    295.34013    505.18505    232460.71    31801.757   -3498.4697    17694.051   -4312.6462    2482.0879   -1667.9114    5930.1816    8884.8422    33514.436    14195.581    17606.176   0.61577226    142.69865    57.079459     28.53973    279.49779 
  120000       120000    20000    292.05777      -369.47    232460.71    31552.031   -3495.7434     17637.27   -4310.0292    2482.2207   -1667.9349    5886.0122    8861.8552    30299.453    14141.527    17410.504   0.61577226    142.69865    57.079459     28.53973    281.80613 
  121000       121000    20000     294.8349   -113.71753    232460.71    31750.217   -3519.3627    17693.522   -4337.0815    2485.6543   -1667.9356    5952.1269     8846.773    31364.692     14174.16    17576.058   0.61577226    142.69865    57.079459     28.53973    284.11578 
  122000       122000    20000    294.18991    99.824791    232460.71    31578.015   -3561.2087    17601.616   -4379.3555    2486.0921   -1667.9453    5907.3785    8755.5055    31916.441    14040.407    17537.608   0.61577226    142.69865    57.079459     28.53973    286.45034 
  123000       123000    20000    296.36625    309.08738    232460.71    31682.095   -3475.9515      17490.7   -4291.2462    2483.2228   -1667.9281    5881.3457    8749.6354    32729.963    14014.749    17667.347   0.61577226    142.69865    57.079459     28.53973    288.79311 
  124000       124000    20000    292.84785   -490.02785    232460.71    31728.964   -3553.0951    17824.455   -4366.3739    2481.2211   -1667.9423    5981.7121    8942.6711    30067.671     14271.36    17457.604   0.61577226    142.69865    57.079459     28.53973    291.11302 
  125000       125000    20000    294.75525    -233.2779    232460.71    31745.864   -3485.1269    17659.681   -4302.7592    2485.5669   -1667.9346    5905.4652    8881.1226    30955.005    14174.554    17571.309   0.61577226    142.69865    57.079459     28.53973    293.50842 
  126000       126000    20000    294.89066   -454.10577    232460.71    31657.508   -3517.4471    17595.574    -4333.266    2483.7705   -1667.9516    5940.7888    8788.9733    30117.999    14078.127    17579.382   0.61577226    142.69865    57.079459     28.53973    295.91213 
  127000       127000    20000    297.50543    272.00077    232460.71    32124.269   -3457.2312    17846.243    -4271.504    2482.1798   -1667.9071    5991.9406    8915.6743    33046.406    14389.012    17735.257   0.61577226    142.69865    57.079459     28.53973    298.28139 
  128000       128000    20000    295.34713   -40.698081    232460.71    31677.797   -3493.7607    17564.964   -4309.4924    2483.6869   -1667.9552    5932.3206    8712.6725    31539.822    14071.203    17606.593   0.61577226    142.69865    57.079459     28.53973    300.61537 
  129000       129000    20000    294.92481    448.28658    232460.71    31599.777   -3484.7857    17503.145    -4299.805    2482.9449   -1667.9255    5905.9196    8695.2528    33119.559    14018.359    17581.418   0.61577226    142.69865    57.079459     28.53973    302.99327 
  130000       130000    20000    296.94312    553.67202    232460.71    31756.422   -3516.6734     17571.36   -4330.1462    2481.3909   -1667.9181    5881.4923    8809.1627    33633.482    14054.687    17701.735   0.61577226    142.69865    57.079459     28.53973    305.37612 
  131000       131000    20000    291.28608    142.78685    232460.71    31440.414   -3465.1447    17541.057    -4281.343    2484.1319   -1667.9336    5835.2468    8829.6255     31924.49    14075.913    17364.501   0.61577226    142.69865    57.079459     28.53973    307.77381 
  132000       132000    20000    292.54637   -168.67729    232460.71    31636.106   -3494.1462     17690.62   -4309.8362    2483.5952   -1667.9051    5905.3655    8908.7358    31064.256    14196.474    17439.631   0.61577226    142.69865    57.079459     28.53973    310.13795 
  133000       133000    20000    295.13709   -309.34075    232460.71    31882.264   -3432.5028    17720.695   -4247.1933    2482.6264   -1667.9359    5989.2793    8808.0143    30833.537    14288.192    17594.072   0.61577226    142.69865    57.079459     28.53973    312.49343 
  134000       134000    20000    293.29875   -90.187989    232460.71    31632.319   -3482.7443    17630.581   -4299.1995    2484.3804   -1667.9252     5920.901    8783.1745    31326.564    14147.837    17484.483   0.61577226    142.69865    57.079459     28.53973    314.98782 
  135000       135000    20000    294.62864   -562.13269    232460.71    31544.289   -3515.5915    17496.119   -4329.6352    2481.9797    -1667.936     5873.569     8745.043    29638.546    13980.528    17563.762   0.61577226    142.69865    57.079459     28.53973    317.30652 
  136000       136000    20000    295.58119   -54.058739    232460.71    31720.665   -3457.7209    17557.839   -4275.5292    2485.7206   -1667.9123    5877.0631    8774.8369    31537.395    14100.118    17620.547   0.61577226    142.69865    57.079459     28.53973    319.59893 
  137000       137000    20000    292.06093    317.34457    232460.71    31396.714   -3509.3687    17495.391   -4323.9652    2482.5594   -1667.9628    5867.6298    8750.8586    32472.576    13986.022    17410.693   0.61577226    142.69865    57.079459     28.53973    321.95698 
  138000       138000    20000    293.01596    56.599643    232460.71    31575.027   -3463.4468    17570.849   -4275.4417    2479.8933   -1667.8985    5818.4618    8837.1076    31766.911    14107.402    17467.625   0.61577226    142.69865    57.079459     28.53973    324.30347 
  139000       139000    20000    297.44574   -164.62796    232460.71    31935.407   -3493.6897    17697.398   -4310.3593    2484.6555   -1667.9859    5933.5347    8867.4544    31377.285    14203.708    17731.698   0.61577226    142.69865    57.079459     28.53973    326.65669 
  140000       140000    20000    296.99659    290.39017    232460.71    31688.944   -3532.1831    17516.204   -4345.9948    2481.7126    -1667.901    5791.6197    8860.7742    32673.425    13984.021    17704.923   0.61577226    142.69865    57.079459     28.53973    329.03393 
  141000       141000    20000    294.83508   -279.46505    232460.71    31697.782   -3512.3597    17634.073   -4325.8655    2481.4535   -1667.9478    5919.8057    8848.1995    30750.339    14121.714    17576.068   0.61577226    142.69865    57.079459     28.53973    331.43445 
  142000       142000    20000    294.24787    301.21834    232460.71    31663.135   -3506.1702    17628.243   -4320.9484      2482.71   -1667.9319    5856.1992    8904.2382    32684.326    14122.072    17541.063   0.61577226    142.69865    57.079459     28.53973    333.80603 
  143000       143000    20000     298.9484    528.89021    232460.71    31902.895   -3482.2935    17563.912   -4295.9978    2481.6252   -1667.9209    5922.2548    8728.7956     33695.94    14081.619    17821.277   0.61577226    142.69865    57.079459     28.53973    336.10309 
  144000       144000    20000    294.74428   -7.8310907    232460.71    31786.922   -3504.4379    17720.704   -4321.3913    2484.8983   -1667.9449    5859.3057    8894.1624    31760.373    14216.266    17570.656   0.61577226    142.69865    57.079459     28.53973    338.42161 
  145000       145000    20000    291.98521   -169.04611    232460.71    31639.369   -3509.5052    17742.695   -4321.4502    2479.8478   -1667.9027    5984.9116    8792.7755    31066.268     14233.19    17406.179   0.61577226    142.69865    57.079459     28.53973    340.75428 
  146000       146000    20000    298.85654     24.92511    232460.71    32101.087   -3504.9236     17790.21   -4320.0919    2483.0419   -1667.8736    5968.5093    8890.3916    32185.588    14285.286    17815.801   0.61577226    142.69865    57.079459     28.53973    343.11878 
  147000       147000    20000     295.8528    126.91907    232460.71    31738.972   -3526.6547    17628.888   -4339.6032    2480.8711   -1667.9226    5894.5434    8791.5737    32169.253    14102.234    17636.738   0.61577226    142.69865    57.079459     28.53973    345.41054 
  148000       148000    20000    294.76974     350.5458    232460.71    31768.959   -3478.1139    17674.899   -4297.9272    2487.7365   -1667.9232    5902.7831    8835.9932     32957.38    14196.785    17572.173   0.61577226    142.69865    57.079459     28.53973    347.72658 
  149000       149000    20000    294.17498    61.725058    232460.71     31651.69   -3487.4029    17602.375   -4300.5926    2481.0974   -1667.9077     5839.265    8825.1507     31860.95    14114.972    17536.718   0.61577226    142.69865    57.079459     28.53973    350.11723 
  150000       150000    20000    295.21398    736.56868    232460.71    31870.982   -3421.1611    17693.487   -4233.8636    2480.6384    -1667.936    5879.8312    8909.9875    34368.098    14272.326    17598.656   0.61577226    142.69865    57.079459     28.53973    352.41813 
  151000       151000    20000    297.50863    543.81674    232460.71    31898.106   -3452.1422    17614.801   -4268.8721    2484.6655   -1667.9356    5815.2338    8881.1829    33741.754    14162.658    17735.447   0.61577226    142.69865    57.079459     28.53973    354.73555 
  152000       152000    20000    292.88298    315.15185    232460.71    31746.686   -3495.2637    17782.252   -4313.3017    2485.9177   -1667.8798    5943.6566    8965.5233    32815.114    14286.988    17459.698   0.61577226    142.69865    57.079459     28.53973      357.074 
  153000       153000    20000    295.18012     655.6544    232460.71    31794.659   -3459.9031    17657.925   -4275.2994    2483.2908   -1667.8946    5883.9944    8909.0936    34017.459    14198.021    17596.638   0.61577226    142.69865    57.079459     28.53973    359.45314 
  154000       154000    20000    297.34152   -646.54961    232460.71     31641.66   -3534.5392    17450.714   -4350.2989    2483.6641   -1667.9045    5838.3492     8765.207    29449.727    13916.175    17725.486   0.61577226    142.69865    57.079459     28.53973    361.77215 
  155000       155000    20000    298.16643   -371.98793    232460.71    31842.764    -3537.649    17605.752   -4356.3767    2486.6515   -1667.9238    5889.1023    8816.7741     30581.65    14068.103    17774.661   0.61577226    142.69865    57.079459     28.53973    364.14834 
  156000       156000    20000    294.67793    417.29614    232460.71    31907.233   -3443.4957    17784.028   -4257.3065    2481.7725   -1667.9617    5940.8945    8941.7046    33321.951    14340.532    17566.701   0.61577226    142.69865    57.079459     28.53973    366.52795 
  157000       157000    20000    294.28441   -144.57203    232460.71    31725.542   -3503.6679    17685.968   -4320.7761    2485.0309   -1667.9227    5902.7562    8883.1194    31235.414      14182.3    17543.242   0.61577226    142.69865    57.079459     28.53973    368.86268 
  158000       158000    20000    297.39933   -20.388183    232460.71    31993.319    -3474.716    17739.103     -4291.24    2484.4428   -1667.9188    5923.2115    8894.4556    31924.199    14264.387    17728.932   0.61577226    142.69865    57.079459     28.53973    371.18666 
  159000       159000    20000    294.98662   -252.51198    232460.71    31685.605   -3527.7175     17628.22   -4340.5026     2480.688   -1667.9028    5922.9059    8823.4442    30829.539    14100.502    17585.103   0.61577226    142.69865    57.079459     28.53973    373.50733 
  160000       160000    20000    293.58437   -348.43088    232460.71    31434.547   -3552.9085    17485.946   -4370.3375    2485.3379   -1667.9088    5928.1029    8706.7042    30253.296    13933.037     17501.51   0.61577226    142.69865    57.079459     28.53973    375.86235 
  161000       161000    20000    295.68795    2.7486727    232460.71     31635.81   -3500.6454    17509.545   -4317.2448    2484.5709   -1667.9715    5844.0192    8783.1841    31645.128    14008.899    17626.911   0.61577226    142.69865    57.079459     28.53973    378.28555 
  162000       162000    20000    296.26322    177.92492    232460.71    31763.154   -3491.9916    17593.941    -4305.313    2481.2266   -1667.9051    5912.1884    8815.7763    32366.356     14101.95    17661.205   0.61577226    142.69865    57.079459     28.53973    380.67243 
  163000       163000    20000    296.48977   -253.77977    232460.71    31854.194    -3507.392    17686.877   -4321.7292    2482.2631   -1667.9259    5931.2584    8877.1905     30993.83    14179.485     17674.71   0.61577226    142.69865    57.079459     28.53973    383.02484 
  164000       164000    20000    292.07547   -535.55263    232460.71    31552.066   -3562.3528     17702.86   -4377.3909    2482.9453   -1667.9072    5941.6549    8883.7177    29736.435    14140.507    17411.559   0.61577226    142.69865    57.079459     28.53973    385.35589 
  165000       165000    20000     297.1807   -139.67863    232460.71    31912.322   -3481.4697    17677.893   -4294.8082    2481.2919   -1667.9534    6055.1481    8741.7093    31438.783    14196.423    17715.898   0.61577226    142.69865    57.079459     28.53973    387.74876 
  166000       166000    20000    293.88569   -550.61807    232460.71    31749.853   -3543.1929    17773.574   -4358.5227    2483.2244   -1667.8947    5989.2276    8900.3839    29883.148    14230.381    17519.472   0.61577226    142.69865    57.079459     28.53973     390.1459 
  167000       167000    20000    291.74276   -271.28227    232460.71    31364.764   -3571.2841    17544.323    -4386.848    2483.4072   -1667.8434    5909.2066    8777.7258    30445.062    13973.038    17391.725   0.61577226    142.69865    57.079459     28.53973    392.47266 
  168000       168000    20000    293.64978    153.39221    232460.71    31689.045   -3508.6522    17692.288    -4323.622    2482.9017   -1667.9319    5931.7983     8844.914    32209.075    14183.635    17505.409   0.61577226    142.69865    57.079459     28.53973    394.76893 
  169000       169000    20000    298.32407   -511.78386    232460.71    31753.871   -3539.2925    17509.105   -4354.7509     2483.426   -1667.9676    5815.7736    8807.3991    30018.821    13969.812    17784.059   0.61577226    142.69865    57.079459     28.53973    397.10668 
  170000       170000    20000    295.12824   -57.218922    232460.71    31853.124   -3495.8399    17755.419   -4310.0284    2482.0681   -1667.8795    5929.9573     8924.003     31659.14    14259.579    17593.545   0.61577226    142.69865    57.079459     28.53973    399.43711 
  171000       171000    20000     294.6735    194.24717    232460.71    31692.122   -3501.9502    17627.636   -4318.6626    2484.6389   -1667.9265    5802.3058    8900.8294    32350.659    14125.686    17566.436   0.61577226    142.69865    57.079459     28.53973    401.74194 
  172000       172000    20000    296.14446   -563.50676    232460.71    31773.476    -3570.218    17689.569   -4385.6477    2483.3359   -1667.9062    5882.7626    8935.3532    29863.074    14119.351    17654.125   0.61577226    142.69865    57.079459     28.53973    404.06516 
  173000       173000    20000    292.93574   -102.95084    232460.71    31747.091   -3555.8517      17840.1   -4372.5015    2484.5736   -1667.9239    5870.1926    9035.4269    31398.067    14284.248    17462.842   0.61577226    142.69865    57.079459     28.53973    406.36279 
  174000       174000    20000    294.43006    351.02903    232460.71    31795.637   -3487.1539    17730.866   -4300.8149     2481.561   -1667.8999    5973.5843    8851.4957    32985.696    14243.713    17551.924   0.61577226    142.69865    57.079459     28.53973    408.71912 
  175000       175000    20000    297.67304    -47.66234    232460.71    31965.314   -3506.9266    17726.992   -4317.1958    2478.1806   -1667.9114    5953.1813    8845.8419    31803.729    14220.066    17745.249   0.61577226    142.69865    57.079459     28.53973    411.08946 
  176000       176000    20000     293.5362    81.192146    232460.71    31737.956   -3485.9524     17725.27   -4298.6359    2480.6201   -1667.9366    5974.5576    8895.0768    32013.214    14239.318    17498.638   0.61577226    142.69865    57.079459     28.53973    413.41829 
  177000       177000    20000    292.74529    313.90177    232460.71    31621.939   -3453.4145    17623.864    -4265.544    2480.0499   -1667.9204    5917.7134    8830.9505    32686.129     14170.45    17451.489   0.61577226    142.69865    57.079459     28.53973    415.71838 
  178000       178000    20000    292.65445   -292.50462    232460.71    31668.499   -3504.0986    17726.524   -4317.7987    2481.6199   -1667.9198    5904.1215      8940.38     30676.85    14222.425    17446.074   0.61577226    142.69865    57.079459     28.53973    418.04694 
  179000       179000    20000     295.2873    554.34526    232460.71    31844.386   -3437.5984    17678.958   -4254.6915    2485.0496   -1667.9566    5993.8594    8813.4899    33723.728     14241.36    17603.027   0.61577226    142.69865    57.079459     28.53973    420.38678 
  180000       180000    20000    297.13087   -6.9016929    232460.71    31901.549   -3491.4613    17680.083   -4306.0815    2482.5794   -1667.9592    5908.8216    8877.6786    31878.151    14188.622    17712.928   0.61577226    142.69865    57.079459     28.53973    422.74925 
  181000       181000    20000    295.93396    148.39314    232460.71    31708.414   -3462.5482    17529.386   -4279.5837    2484.9915    -1667.956    5876.4284    8782.5044    32211.496    14066.838    17641.576   0.61577226    142.69865    57.079459     28.53973    425.05495 
  182000       182000    20000    298.66644   -504.35477    232460.71    31735.047   -3533.0498    17463.628   -4347.6678     2482.493    -1667.875    5876.7102     8672.603    30025.183    13930.578    17804.468   0.61577226    142.69865    57.079459     28.53973    427.43426 
  183000       183000    20000    295.53058     16.40333    232460.71    31802.068   -3448.3738    17632.913   -4260.3149    2479.8369   -1667.8958    5893.9876    8826.4691    31857.679    14184.539    17617.529   0.61577226    142.69865    57.079459     28.53973    429.87953 
  184000       184000    20000    294.32534   -104.42357    232460.71    31699.009   -3476.8358    17630.164   -4291.5325    2482.6112   -1667.9144    5840.3372    8861.8812    31344.992    14153.328    17545.681   0.61577226    142.69865    57.079459     28.53973    432.20336 
  185000       185000    20000    295.54148    308.17851    232460.71     31709.89   -3490.2925    17582.003   -4306.0494    2483.6405   -1667.8836    5897.9908    8811.7722    32754.677    14091.711     17618.18   0.61577226    142.69865    57.079459     28.53973    434.55918 
  186000       186000    20000    295.63961    883.10977    232460.71    31541.704   -3489.4435    17407.119   -4305.2694    2483.7291   -1667.9032    5761.6326    8763.9998    34535.624    13917.675    17624.029   0.61577226    142.69865    57.079459     28.53973    436.89952 
  187000       187000    20000    296.45837   -237.82946    232460.71    31791.488   -3520.2379    17638.888   -4336.5311     2484.199   -1667.9058    5862.5186    8842.1435    30985.198     14118.65    17672.838   0.61577226    142.69865    57.079459     28.53973    439.27275 
  188000       188000    20000    293.79618   -564.58814    232460.71    31542.331   -3538.7322    17566.927   -4353.1037    2482.2981   -1667.9267    5858.0629    8855.7885    29628.263    14028.194    17514.136   0.61577226    142.69865    57.079459     28.53973    441.65424 
  189000       189000    20000    295.09875   -56.322226    232460.71    31850.765   -3491.7837    17750.761   -4308.3278    2484.5129   -1667.9688    5906.5139    8935.5446    31659.821    14258.978    17591.787   0.61577226    142.69865    57.079459     28.53973    444.03085 
  190000       190000    20000    296.82151    97.566143    232460.71     31847.93   -3484.3154    17637.759   -4298.0877    2481.6834    -1667.911    5855.3905    8874.3923    32178.699    14153.444    17694.486   0.61577226    142.69865    57.079459     28.53973    446.34991 
  191000       191000    20000    294.18595    5.8282297    232460.71    31650.827   -3501.0658    17614.521   -4315.2131    2482.0973   -1667.9501    5923.6733    8835.0081    31670.586    14113.455    17537.372   0.61577226    142.69865    57.079459     28.53973    448.69801 
  192000       192000    20000    293.44871    54.747414    232460.71    31687.608   -3459.0617    17653.247   -4276.5752    2485.4336     -1667.92    5923.5473    8829.0769    31873.212    14194.185    17493.422   0.61577226    142.69865    57.079459     28.53973    451.07576 
  193000       193000    20000    294.50927   0.15549147    232460.71    31830.487   -3465.8911    17739.733   -4282.6934    2484.7554   -1667.9531    5962.3468    8876.5894    31831.014    14273.841    17556.646   0.61577226    142.69865    57.079459     28.53973    453.44908 
  194000       194000    20000    295.46663    274.35709    232460.71     31674.45   -3494.8458    17555.578   -4310.2885    2483.3399   -1667.8973    5894.9667     8816.186    32604.576    14060.733    17613.717   0.61577226    142.69865    57.079459     28.53973    455.83451 
  195000       195000    20000    293.37136   -95.243939    232460.71    31622.152   -3451.4722    17584.813   -4266.6129    2483.0946   -1667.9538    5841.8045    8846.2404    31299.256    14133.341    17488.811   0.61577226    142.69865    57.079459     28.53973    458.17852 
  196000       196000    20000    294.81056   -705.72182    232460.71     31455.07   -3558.2436    17438.707   -4375.3689    2485.0924    -1667.967    5909.6278     8650.289    29062.532    13880.464    17574.607   0.61577226    142.69865    57.079459     28.53973     460.5231 
  197000       197000    20000    296.60061   -413.37242    232460.71    31856.926   -3482.8275    17658.436   -4299.1508     2484.231   -1667.9077     5964.482     8803.307     30455.51    14175.608    17681.318   0.61577226    142.69865    57.079459     28.53973    462.87001 
  198000       198000    20000    294.37663    244.43442    232460.71    31608.462   -3539.9878    17599.711   -4358.8652    2486.8402   -1667.9628    5899.6455    8827.9592    32437.144    14059.723    17548.739   0.61577226    142.69865    57.079459     28.53973    465.21444 
  199000       199000    20000    293.26472   -81.445165    232460.71    31541.625   -3540.0302    17599.201   -4358.7126    2486.6161   -1667.9337    5899.3237    8829.4849    31265.509    14059.171    17482.454   0.61577226    142.69865    57.079459     28.53973    467.50075 
  200000       200000    20000    295.22491   -168.59085    232460.71    31754.495   -3494.5917    17649.779   -4307.8178    2481.1394   -1667.9133    5846.5955    8852.1359    31182.938    14155.188    17599.308   0.61577226    142.69865    57.079459     28.53973    469.77578 
  201000       201000    20000    296.26825    525.33673    232460.71    31864.134   -3496.8062    17699.436   -4313.9015    2485.0278   -1667.9325    5819.0175    8967.3477    33645.131     14202.63    17661.504   0.61577226    142.69865    57.079459     28.53973    472.08739 
  202000       202000    20000    294.68207     650.5798    232460.71    31670.464   -3497.9336     17601.45   -4316.1935    2486.2047   -1667.9448    5877.0311    8823.8874     33876.06    14103.517    17566.947   0.61577226    142.69865    57.079459     28.53973    474.38855 
  203000       203000    20000    293.92392    403.10119    232460.71    31751.425   -3489.9691    17719.643    -4303.271    2481.2623   -1667.9604    5804.4205    9004.5656    33118.019    14229.674    17521.751   0.61577226    142.69865    57.079459     28.53973    476.68116 
  204000       204000    20000    294.48193    73.328975    232460.71    31706.468   -3511.3231    17662.774   -4324.0182    2480.5888   -1667.8937    5895.5293    8897.8937    31955.067    14151.451    17555.016   0.61577226    142.69865    57.079459     28.53973    478.97028 
  205000       205000    20000    295.32227   -321.08099    232460.71    31682.312   -3485.8147    17563.015   -4300.4915    2482.5569   -1667.8801    5896.0478     8807.825    30593.783    14077.201    17605.111   0.61577226    142.69865    57.079459     28.53973    481.26603 
  206000       206000    20000    295.73566    39.127843    232460.71    31922.307   -3445.3367    17737.889   -4255.2676    2477.7914   -1667.8605    5955.9995    8861.1582    32054.958    14292.552    17629.755   0.61577226    142.69865    57.079459     28.53973    483.59177 
  207000       207000    20000    294.04283    87.300644    232460.71    31578.385   -3570.4168    17619.962   -4387.7944    2485.2851   -1667.9074     5902.647    8855.6986    31874.352    14049.545     17528.84   0.61577226    142.69865    57.079459     28.53973    485.95251 
  208000       208000    20000    297.06544    458.93578    232460.71    31761.931   -3499.0409    17551.945    -4312.796    2481.6747   -1667.9196    5784.5859    8859.5646    33317.816    14052.904    17709.027   0.61577226    142.69865    57.079459     28.53973    488.27774 
  209000       209000    20000    293.84843   -70.876788    232460.71    31717.225   -3436.8072     17636.78   -4253.7074    2484.8648   -1667.9646    5902.8465    8832.3157    31476.938    14199.973    17517.251   0.61577226    142.69865    57.079459     28.53973      490.627 
  210000       210000    20000    294.32853    247.03264    232460.71    31589.628   -3490.9238     17534.68   -4303.7032    2480.7189   -1667.9395    5785.3562    8821.8603    32427.118    14043.756    17545.872   0.61577226    142.69865    57.079459     28.53973    492.93075 
  211000       211000    20000    297.20312   -274.70918    232460.71    31767.917   -3551.5237    17602.206   -4365.8523    2482.2401   -1667.9115    5997.3175    8713.7917    30836.598    14050.682    17717.235   0.61577226    142.69865    57.079459     28.53973     495.2592 
  212000       212000    20000    296.83559   -270.42903    232460.71    31679.644   -3522.9405    17507.259   -4334.8672    2479.8727    -1667.946    5889.8157    8786.6206    30762.835    13984.318    17695.325   0.61577226    142.69865    57.079459     28.53973    497.60846 
  213000       213000    20000    297.67354    79.076268    232460.71    31990.454   -3465.3206    17710.497   -4279.7877    2482.4281    -1667.961    5953.5695    8877.3898    32258.539    14245.176    17745.278   0.61577226    142.69865    57.079459     28.53973    499.95469 
  214000       214000    20000    296.70528   -149.65777    232460.71    31712.144   -3540.8768    17565.463   -4355.9338    2483.0136   -1667.9566    5849.4109    8823.8794    31204.774    14024.586    17687.557   0.61577226    142.69865    57.079459     28.53973    502.33025 
  215000       215000    20000    294.17812   -537.79416    232460.71    31739.504   -3450.6276    17653.227   -4263.7677    2481.0404   -1667.9002    5969.9381    8794.7922    29916.274    14202.599    17536.905   0.61577226    142.69865    57.079459     28.53973     504.6436 
  216000       216000    20000    296.57083   -53.669252    232460.71    31758.139   -3501.8911    17580.488   -4315.8946    2481.9464   -1667.9429    5921.9435    8753.3872    31576.189    14078.597    17679.542   0.61577226    142.69865    57.079459     28.53973    506.97966 
  217000       217000    20000    295.98115   -693.66954    232460.71    31644.259   -3489.0529    17488.922    -4304.234    2483.0994   -1667.9183    5895.9722    8690.2203     29292.58    13999.869    17644.389   0.61577226    142.69865    57.079459     28.53973    509.27276 
  218000       218000    20000    292.34976   -186.33019    232460.71      31387.4   -3552.7529    17512.242   -4364.5744     2479.752   -1667.9306    5858.7686    8766.2345    30755.703    13959.489    17427.911   0.61577226    142.69865    57.079459     28.53973    511.56992 
  219000       219000    20000    294.56923    300.88025    232460.71    31779.812   -3510.3093    17729.901    -4324.213     2481.796   -1667.8923    5951.6146    8907.3898    32799.857    14219.592     17560.22   0.61577226    142.69865    57.079459     28.53973    513.93302 
  220000       220000    20000    294.23537    69.678373    232460.71    31906.197   -3474.7509     17840.63    -4288.337     2481.496   -1667.9099    5933.8449     9016.059    32142.421    14365.879    17540.318   0.61577226    142.69865    57.079459     28.53973    516.31254 
  221000       221000    20000    293.09128    649.10324    232460.71     31600.43   -3470.6082    17598.923   -4291.3734    2488.6673   -1667.9021     5871.184    8835.3569    33801.021    14128.315    17472.115   0.61577226    142.69865    57.079459     28.53973    518.68243 
  222000       222000    20000    294.78961    462.40946    232460.71    31681.873   -3429.5898    17538.105   -4242.9861    2481.2781   -1667.8819    5925.5761         8753    33249.534    14108.515    17573.358   0.61577226    142.69865    57.079459     28.53973    521.00183 
  223000       223000    20000    295.93675   -359.70083    232460.71     31786.31   -3465.7684    17610.336   -4281.6722    2483.8368    -1667.933    5860.7762    8819.2462    30566.852    14144.568    17641.742   0.61577226    142.69865    57.079459     28.53973    523.31472 
  224000       224000    20000    295.78674   -227.55361    232460.71     31853.01   -3482.6396    17702.849    -4296.513    2481.7611   -1667.8878    5908.3609    8918.5841    31081.557     14220.21      17632.8   0.61577226    142.69865    57.079459     28.53973    525.63636 
  225000       225000    20000    297.04828   -366.18617    232460.71    31858.802   -3533.0722    17683.869   -4345.5768    2480.3841   -1667.8795    5884.7871    8933.7331    30617.357    14150.797    17708.004   0.61577226    142.69865    57.079459     28.53973     527.9529 
  226000       226000    20000    294.62326   -243.79067    232460.71    31693.922   -3546.5352    17677.016   -4362.3178     2483.673   -1667.8905    5887.9935    8898.3181    30867.422    14130.481    17563.441   0.61577226    142.69865    57.079459     28.53973    530.30244 
  227000       227000    20000    293.93266   -207.58321    232460.71    31599.738   -3511.5588    17589.024   -4330.2949    2486.6597   -1667.9237    5858.7473    8841.0425    30895.989    14077.465    17522.272   0.61577226    142.69865    57.079459     28.53973    532.67099 
  228000       228000    20000     295.7812    391.93708    232460.71    31769.858   -3426.1766    17563.565   -4240.9922     2482.726   -1667.9105    5880.3446    8761.3044    33098.604    14137.389     17632.47   0.61577226    142.69865    57.079459     28.53973    535.04957 
  229000       229000    20000    295.48666   -254.27111    232460.71    31816.849    -3432.581    17634.518   -4245.0931    2480.4504   -1667.9383    5856.4835    8840.9789    30954.819    14201.937    17614.911   0.61577226    142.69865    57.079459     28.53973    537.43204 
  230000       230000    20000    296.05304   -184.92816    232460.71    31668.718   -3503.4892    17523.532   -4316.5297    2480.9697   -1667.9292    5838.7764    8776.2356    31041.774    14020.043    17648.675   0.61577226    142.69865    57.079459     28.53973    539.74925 
  231000       231000    20000    293.19803   -237.34453    232460.71    31661.819   -3461.7973    17645.137   -4278.7357    2484.8644    -1667.926    5895.2467    8860.2389    30857.173     14183.34    17478.479   0.61577226    142.69865    57.079459     28.53973    542.07703 
  232000       232000    20000    292.98866    144.94016    232460.71    31578.632    -3459.304    17571.938   -4272.7116    2481.3434   -1667.9358    5801.2558    8863.5185    32070.008    14112.634    17465.998   0.61577226    142.69865    57.079459     28.53973    544.41443 
  233000       233000    20000    296.15585    286.35326    232460.71    31728.751   -3489.8534    17563.801   -4308.2066    2486.3081   -1667.9548     5862.974      8810.62    32699.546    14073.948    17654.804   0.61577226    142.69865    57.079459     28.53973    546.75146 
  234000       234000    20000    296.83229   -208.01529    232460.71    31863.042   -3523.2048    17691.118   -4337.4152    2482.1543    -1667.944    5848.7653    8927.2202    31157.828    14167.913    17695.129   0.61577226    142.69865    57.079459     28.53973    549.08088 
  235000       235000    20000    296.57292    218.33863    232460.71    31603.503   -3473.8303    17397.666   -4288.7682    2482.8936   -1667.9557    5814.3741    8708.3989    32343.715    13923.836    17679.667   0.61577226    142.69865    57.079459     28.53973    551.40925 
  236000       236000    20000    294.87928    146.07496    232460.71    31672.786   -3503.1585    17597.241   -4318.2531    2482.9866    -1667.892     5919.905    8792.9684    32168.009    14094.083    17578.703   0.61577226    142.69865    57.079459     28.53973    553.73349 
  237000       237000    20000    296.07195    279.44058    232460.71    31792.361   -3526.8085    17669.367   -4343.1264    2484.2144   -1667.8964    5923.8132    8821.6649     32739.72    14142.559    17649.802   0.61577226    142.69865    57.079459     28.53973    556.04593 
  238000       238000    20000    294.21003   -144.20033    232460.71    31597.306   -3477.9743    17536.473   -4296.6291    2486.5642   -1667.9094    5783.5528    8859.3328    31108.438    14058.499    17538.807   0.61577226    142.69865    57.079459     28.53973    558.30277 
  239000       239000    20000    292.45957    99.394581    232460.71    31553.031   -3474.9445    17593.519   -4290.1978    2483.1711   -1667.9179    5777.9913    8914.5432    31889.999    14118.575    17434.457   0.61577226    142.69865    57.079459     28.53973     560.5841 
  240000       240000    20000    294.96513   -695.20662    232460.71    31785.996    -3519.811    17721.985   -4337.5974    2485.7211   -1667.9347    5943.8139    8829.6183    29429.105    14202.175    17583.821   0.61577226    142.69865    57.079459     28.53973    562.89039 
  241000       241000    20000    295.72993   -1.8030879    232460.71    31657.529   -3531.7394    17559.854    -4345.737    2481.9239   -1667.9262    5848.0038    8793.4683    31651.416    14028.115    17629.414   0.61577226    142.69865    57.079459     28.53973    565.26601 
  242000       242000    20000    296.38405   -549.73039    232460.71    31563.639   -3507.4675    17402.699   -4320.6104    2481.0615   -1667.9186    5835.5422    8651.2382    29699.942    13895.232    17668.407   0.61577226    142.69865    57.079459     28.53973    567.65783 
  243000       243000    20000    294.33758     567.4925    232460.71     31669.01   -3495.3999    17617.999    -4309.418    2481.9369   -1667.9188     5834.623    8890.9288    33592.923    14122.599    17546.411   0.61577226    142.69865    57.079459     28.53973     569.9759 
  244000       244000    20000    293.12287   -528.81602    232460.71    31598.193   -3502.9431    17627.137   -4320.4416    2485.4312   -1667.9327    5844.0328    8859.9927      29805.4    14124.194    17473.998   0.61577226    142.69865    57.079459     28.53973    572.27015 
  245000       245000    20000     294.6656    190.68977    232460.71    31738.294   -3525.4054    17697.733   -4343.1737    2485.7139   -1667.9456    5848.6913    8996.8013     32384.77    14172.328    17565.966   0.61577226    142.69865    57.079459     28.53973    574.57095 
  246000       246000    20000     295.3346   -252.01791    232460.71    31756.208   -3483.2326    17633.594   -4301.4208    2486.1022    -1667.914    5915.8297    8799.3924    30901.817    14150.362    17605.847   0.61577226    142.69865    57.079459     28.53973    576.95034 
  247000       247000    20000    295.46626   -161.71849    232460.71    31834.511   -3471.3649    17692.181   -4288.0928    2484.6549   -1667.9271     5935.259    8822.1316    31286.253    14220.816    17613.695   0.61577226    142.69865    57.079459     28.53973    579.25911 
  248000       248000    20000    292.94341   -704.51486    232460.71    31578.536   -3477.4336    17592.669    -4292.643    2483.1316   -1667.9221    5900.5968    8776.1008    29190.089    14115.235      17463.3   0.61577226    142.69865    57.079459     28.53973    581.55241 
  249000       249000    20000    293.80113   -117.95156    232460.71    31743.472   -3477.3095     17706.35   -4296.2364    2486.8804   -1667.9535    5867.6319    8925.8547    31343.593    14229.041    17514.432   0.61577226    142.69865    57.079459     28.53973    583.97067 
  250000       250000    20000    294.18877   -309.51873    232460.71    31852.191   -3381.7438    17696.394   -4195.2587    2481.4723   -1667.9574    5874.4303    8883.8993     30802.86    14314.651     17537.54   0.61577226    142.69865    57.079459     28.53973     586.3359 
  251000       251000    20000    295.29187    183.62402    232460.71    31712.377   -3480.0042    17589.082   -4294.8596    2482.7869   -1667.9314    5892.9935    8815.6992    32334.899    14109.078    17603.299   0.61577226    142.69865    57.079459     28.53973    588.66078 
  252000       252000    20000     293.4294   -558.05889    232460.71     31911.01   -3487.2544    17905.993   -4303.4052    2484.0731   -1667.9224    5988.5604    8987.5393    30019.078    14418.738    17492.272   0.61577226    142.69865    57.079459     28.53973    590.95481 
  253000       253000    20000    294.70945   -308.83572    232460.71    31691.256   -3487.8534     17610.53   -4301.2321    2481.3193   -1667.9405    5899.6932    8790.9894    30644.241    14122.677    17568.579   0.61577226    142.69865    57.079459     28.53973    593.27979 
  254000       254000    20000    294.77357   -195.34843    232460.71    31772.779   -3430.2042    17630.582    -4246.081    2483.8586   -1667.9818       5818.3    8867.2099    31110.509    14200.377    17572.402   0.61577226    142.69865    57.079459     28.53973    595.68343 
  255000       255000    20000     296.4124   -546.88129    232460.71    31729.866   -3477.1599    17536.928   -4293.3155    2484.1107   -1667.9551    5953.2785    8696.7921    29875.828    14059.768    17670.098   0.61577226    142.69865    57.079459     28.53973    597.96946 
  256000       256000    20000    294.85428    51.447006    232460.71    31902.404   -3464.8246    17790.016   -4281.0518     2484.195   -1667.9678     5922.788    8929.4972     32076.82    14325.191    17577.213   0.61577226    142.69865    57.079459     28.53973    600.28545 
  257000       257000    20000    294.91939   -176.85933    232460.71    31752.692   -3460.6951    17632.293   -4276.0483    2483.2921   -1667.9389    5842.8636    8865.7091    31153.103    14171.598    17581.095   0.61577226    142.69865    57.079459     28.53973    602.59086 
  258000       258000    20000    295.70034    144.26443    232460.71    31924.926   -3450.0377    17747.314   -4266.1591    2484.0953   -1667.9739    5948.4621    8933.2482    32414.011    14297.276     17627.65   0.61577226    142.69865    57.079459     28.53973    604.93923 
  259000       259000    20000    293.75723    -48.76533    232460.71    31489.908   -3478.8917    17456.985    -4298.274    2487.3229   -1667.9406    5843.8931    8761.7473    31324.584    13978.094    17511.814   0.61577226    142.69865    57.079459     28.53973    607.22454 
  260000       260000    20000    296.97391    1143.5484    232460.71    31741.849   -3446.4169    17484.695   -4261.3361    2482.8377   -1667.9185    5836.8429    8759.8264    35618.708    14038.278    17703.571   0.61577226    142.69865    57.079459     28.53973    609.50329 
  261000       261000    20000    293.41391    129.31396    232460.71    31582.732   -3476.5221    17567.906    -4294.231    2485.6751   -1667.9661    5928.0605    8771.6355    32021.132    14091.384    17491.348   0.61577226    142.69865    57.079459     28.53973    611.81295 
  262000       262000    20000    297.89534   -327.35855    232460.71    31897.947    -3436.931    17576.378   -4248.3714    2479.3836   -1667.9431    5991.9306     8672.612    30788.136    14139.447      17758.5   0.61577226    142.69865    57.079459     28.53973     614.1328 
  263000       263000    20000    292.66212    84.033064    232460.71    31455.343   -3476.3318    17485.144   -4291.6137    2483.2115   -1667.9296    5857.0455    8734.0834    31740.232    14008.812    17446.531   0.61577226    142.69865    57.079459     28.53973    616.45464 
  264000       264000    20000    292.73389   -592.00483    232460.71    31774.004   -3517.7753     17840.97   -4334.7293    2484.9083   -1667.9543    6081.3828    8853.2715    29766.989    14323.195     17450.81   0.61577226    142.69865    57.079459     28.53973    618.81664 
  265000       265000    20000    292.65546   -234.18859    232460.71    31491.773    -3508.635    17554.274   -4324.5746     2483.869   -1667.9295     5836.545    8827.5432    30697.826    14045.639    17446.134   0.61577226    142.69865    57.079459     28.53973    621.13847 
  266000       266000    20000    292.93213    196.54009    232460.71     31707.73   -3508.3841    17753.487   -4326.8087    2486.3279   -1667.9034    5988.9568    8841.1211     32374.04    14245.103    17462.627   0.61577226    142.69865    57.079459     28.53973    623.47652 
  267000       267000    20000    294.84019    65.947879    232460.71    31624.854   -3467.3012    17515.782   -4282.1741    2482.8154   -1667.9425    5874.9089    8775.6001     31848.43    14048.481    17576.373   0.61577226    142.69865    57.079459     28.53973    625.79326 
  268000       268000    20000    296.47401     428.6428    232460.71    31834.419   -3470.0569    17630.706   -4286.5561    2484.4578   -1667.9586    5876.1406    8871.1646    33287.604    14160.649    17673.771   0.61577226    142.69865    57.079459     28.53973    628.09411 
  269000       269000    20000    293.32212    196.07222    232460.71    31570.674   -3470.2585    17555.057   -4289.8864     2487.574   -1667.9461    5876.0497    8798.7699    32235.398    14084.798    17485.876   0.61577226    142.69865    57.079459     28.53973    630.38542 
  270000       270000    20000    294.36347   -15.234867    232460.71    31726.871   -3509.6491    17688.566   -4327.3035    2485.6126   -1667.9582    5821.6901    8951.7882    31675.222    14178.917    17547.955   0.61577226    142.69865    57.079459     28.53973    632.71266 
  271000       271000    20000    294.06529     3.560451    232460.71    31578.414    -3457.029    17505.265   -4271.5193    2482.4439   -1667.9536    5796.6396     8798.428    31590.485    14048.236    17530.179   0.61577226    142.69865    57.079459     28.53973    635.01384 
  272000       272000    20000    298.26503   -116.94034    232460.71    31928.633   -3448.0585    17596.153    -4261.621    2481.5159   -1667.9535     5861.338    8842.6519    31532.182    14148.095    17780.539   0.61577226    142.69865    57.079459     28.53973    637.33754 
  273000       273000    20000    294.40209    401.21316    232460.71    31498.858   -3498.6567    17447.258   -4312.0409    2481.3609   -1667.9767    5778.6936    8819.0483    32859.051    13948.601    17550.256   0.61577226    142.69865    57.079459     28.53973    639.60707 
  274000       274000    20000    294.80191    526.12161    232460.71      31690.6   -3478.5579    17595.067   -4293.5105    2482.8981   -1667.9455    5978.7981    8732.0177    33474.258    14116.509    17574.091   0.61577226    142.69865    57.079459     28.53973    641.87057 
  275000       275000    20000    297.47365    251.24298    232460.71    31713.013   -3482.6868    17462.337   -4295.3426    2480.6149    -1667.959    5870.6186    8683.5781    32564.777    13979.651    17733.362   0.61577226    142.69865    57.079459     28.53973    644.13631 
  276000       276000    20000    292.98582    35.933875    232460.71    31584.352   -3519.0984    17637.622   -4335.7382    2484.5681   -1667.9282    5831.2032    8863.7666    31706.175    14118.524    17465.828   0.61577226    142.69865    57.079459     28.53973    646.41477 
  277000       277000    20000    296.27371   -274.74102    232460.71    31711.166   -3472.5489    17521.885    -4286.478    2481.8335   -1667.9044    5883.3752    8780.8372    30779.739    14049.336     17661.83   0.61577226    142.69865    57.079459     28.53973    648.74449 
  278000       278000    20000    295.76553    194.95923    232460.71    31866.719   -3502.5161    17737.699   -4316.3606    2481.7745     -1667.93    5945.0164     8877.226     32527.67    14235.183    17631.536   0.61577226    142.69865    57.079459     28.53973    651.04001 
[...]
 4936000      4936000    20000    296.66253     71.32628    232460.71    31767.351   -3453.7456    17536.088   -4267.7151    2481.8841   -1667.9147     5883.164    8730.5296    32009.162    14082.342    17685.009   0.61577226    142.69865    57.079459     28.53973    11322.974 
 4937000      4937000    20000    290.84275    -320.3056    232460.71    31440.065   -3410.7106    17512.703   -4223.4001    2480.6352   -1667.9457    5871.7513    8710.0053    30354.165    14101.992    17338.073   0.61577226    142.69865    57.079459     28.53973    11325.259 
 4938000      4938000    20000     295.6473    469.12774    232460.71    31766.772   -3486.2735    17628.558   -4298.6554    2480.3426   -1667.9606    5863.4915    8842.2892     33357.21    14142.285    17624.488   0.61577226    142.69865    57.079459     28.53973    11327.521 
 4939000      4939000    20000    296.93268     487.9771    232460.71    31870.508   -3424.3051      17593.7    -4235.785    2479.4158   -1667.9359    5899.7891    8777.9669    33524.849    14169.395    17701.113   0.61577226    142.69865    57.079459     28.53973    11329.764 
 4940000      4940000    20000    294.66257    594.42563    232460.71    31697.821   -3370.7127    17502.749   -4182.1077    2479.3102   -1667.9152     5843.443    8741.9083    33713.044    14132.037    17565.785   0.61577226    142.69865    57.079459     28.53973    11332.051 
 4941000      4941000    20000    295.24493    102.26345    232460.71    31748.179   -3492.0694    17639.748   -4308.3356    2484.1849   -1667.9187    5900.2433    8817.1786    32094.873    14147.678    17600.501   0.61577226    142.69865    57.079459     28.53973    11334.272 
 4942000      4942000    20000    297.48084    454.12584    232460.71    31769.614     -3429.74    17465.564   -4242.2495     2480.465   -1667.9556    5748.9609    8820.1396    33309.192    14035.824    17733.791   0.61577226    142.69865    57.079459     28.53973    11336.498 
 4943000      4943000    20000     296.2836    130.87131    232460.71    31664.503   -3469.8731    17471.957   -4284.4962    2482.5074   -1667.8843    5909.9096    8686.1292    32108.183    14002.084    17662.419   0.61577226    142.69865    57.079459     28.53973    11338.757 
 4944000      4944000    20000    294.58398    93.235611    232460.71     31643.79   -3520.1019    17602.792   -4335.8744    2483.6818   -1667.9093    5811.9248    8875.9429    31959.878    14082.691      17561.1   0.61577226    142.69865    57.079459     28.53973    11341.031 
 4945000      4945000    20000    296.91851   -405.04616    232460.71     31959.84   -3460.2094    17719.781   -4280.0577    2487.7873   -1667.9391    5876.7483    8912.3026    30586.652    14259.571    17700.269   0.61577226    142.69865    57.079459     28.53973    11343.326 
 4946000      4946000    20000    296.36292   -313.12806    232460.71    31802.145   -3470.7028    17605.699   -4284.4519    2481.6842   -1667.9351     5937.582    8775.8256    30740.578    14134.997    17667.148   0.61577226    142.69865    57.079459     28.53973    11345.546 
 4947000      4947000    20000    297.02479    417.93263    232460.71    31906.662   -3466.8141    17666.872   -4282.5517    2483.6972   -1667.9596     5854.124    8903.1819    33323.538    14200.058    17706.604   0.61577226    142.69865    57.079459     28.53973    11347.831 
 4948000      4948000    20000    293.61711    264.97863    232460.71    31629.594   -3483.2582    17609.391    -4298.779    2483.4701   -1667.9493    5744.6726     8987.947    32527.925    14126.133    17503.461   0.61577226    142.69865    57.079459     28.53973    11350.082 
 4949000      4949000    20000    294.85322   -129.74861    232460.71    31697.903   -3533.2173     17653.97   -4349.8316    2484.5283   -1667.9141    5860.3059    8887.1826    31258.029    14120.753     17577.15   0.61577226    142.69865    57.079459     28.53973    11352.331 
 4950000      4950000    20000     297.3077   -151.84401    232460.71    31671.164   -3554.0577    17501.752   -4370.0374    2483.9217   -1667.9421    5761.1471    8868.1616    31156.383    13947.695     17723.47   0.61577226    142.69865    57.079459     28.53973    11354.573 
 4951000      4951000    20000    296.75547   -5.8444459    232460.71    31681.713   -3521.4711    17512.635   -4336.7185    2483.1974   -1667.9501    5850.7314     8750.586    31661.899    13991.164    17690.549   0.61577226    142.69865    57.079459     28.53973    11356.822 
 4952000      4952000    20000    296.11983   -212.00008    232460.71      31771.3   -3469.7479    17588.391   -4283.1155    2481.3065   -1667.9389    5875.1115     8822.643    31052.577    14118.643    17652.656   0.61577226    142.69865    57.079459     28.53973    11359.104 
 4953000      4953000    20000    296.43088    -23.73684    232460.71     31592.61   -3576.6455    17498.056   -4393.3436    2484.5752   -1667.8772     5807.041    8839.1847    31512.138    13921.411      17671.2   0.61577226    142.69865    57.079459     28.53973    11361.334 
 4954000      4954000    20000    295.58879    13.549612    232460.71    31554.791   -3551.5955    17485.387   -4368.1715    2484.4945   -1667.9185    5836.8725    8752.8682    31600.727    13933.792        17621   0.61577226    142.69865    57.079459     28.53973    11363.619 
 4955000      4955000    20000    296.70609    129.06422    232460.71    31686.744   -3510.0452    17509.184   -4325.4338    2483.3193   -1667.9307    5754.0834    8842.4741    32124.298    13999.139    17687.605   0.61577226    142.69865    57.079459     28.53973    11365.866 
 4956000      4956000    20000    293.38142   -404.42793    232460.71    31620.809   -3508.2581    17639.656   -4323.6797    2483.3733   -1667.9516    5925.9109    8812.4458    30249.717    14131.398    17489.411   0.61577226    142.69865    57.079459     28.53973    11368.127 
 4957000      4957000    20000    296.77174   -407.66193    232460.71    31974.593   -3512.6863    17795.761   -4330.2787    2485.4559   -1667.8635    5927.3529    8906.2623    30592.538    14283.075    17691.519   0.61577226    142.69865    57.079459     28.53973    11370.375 
 4958000      4958000    20000    295.10811   -460.12775    232460.71    31658.143    -3537.992     17603.79   -4348.8343    2478.7526   -1667.9103    5828.1842    8860.0402    30098.217    14065.798    17592.345   0.61577226    142.69865    57.079459     28.53973    11372.643 
 4959000      4959000    20000     296.8209   -364.93291    232460.71    31767.725   -3526.8072    17600.082   -4340.1953    2481.2638   -1667.8757    5901.3606    8819.8551    30530.529    14073.275     17694.45   0.61577226    142.69865    57.079459     28.53973    11374.888 
 4960000      4960000    20000    294.93297   -410.51981    232460.71    31674.894    -3473.999     17566.99   -4284.3248    2478.2131   -1667.8874    5821.7489    8806.7665     30283.15    14092.991    17581.904   0.61577226    142.69865    57.079459     28.53973    11377.173 
 4961000      4961000    20000    292.59775    28.397339    232460.71    31542.914    -3459.294    17559.514   -4273.8535    2482.4777   -1667.9181    5915.7787    8731.4674    31639.186     14100.22    17442.694   0.61577226    142.69865    57.079459     28.53973    11379.517 
 4962000      4962000    20000    296.29309   -183.15745    232460.71    31731.817   -3523.8904    17592.722   -4338.7381    2482.7591   -1667.9113    5893.6595    8828.4169    31110.876    14068.831    17662.985   0.61577226    142.69865    57.079459     28.53973    11381.799 
 4963000      4963000    20000    296.01057     72.98758    232460.71    31675.192   -3521.6301    17550.679   -4335.5459    2481.8652   -1667.9494    5926.9752    8706.4684    31922.634    14029.049    17646.143   0.61577226    142.69865    57.079459     28.53973    11384.027 
 4964000      4964000    20000    293.78461    185.45942    232460.71    31537.699    -3510.363    17534.615   -4325.6698    2483.2804   -1667.9737    5853.0409    8784.1333    32166.443    14024.252    17513.446   0.61577226    142.69865    57.079459     28.53973    11386.301 
 4965000      4965000    20000     293.2067   -234.16777    232460.71    31677.629   -3447.7504    17646.384   -4261.5964    2481.7858   -1667.9399     5963.885    8757.9752    30883.753    14198.634    17478.995   0.61577226    142.69865    57.079459     28.53973    11388.587 
 4966000      4966000    20000    293.89665   -478.79073    232460.71     31776.51   -3469.4866    17725.871   -4284.0129    2482.4554    -1667.929      5946.82    8834.0728    30153.313    14256.384    17520.126   0.61577226    142.69865    57.079459     28.53973    11390.826 
 4967000      4967000    20000     294.6192   -214.00087    232460.71    31576.156   -3501.3659    17514.323   -4317.7304    2484.2453   -1667.8808    5869.4056     8807.754     30850.65    14012.957    17563.199   0.61577226    142.69865    57.079459     28.53973    11393.092 
 4968000      4968000    20000    294.22389    447.77236    232460.71    31889.048   -3433.2623    17782.676    -4249.152    2483.8142   -1667.9245    6014.0596    8832.1672    33407.086    14349.414    17539.634   0.61577226    142.69865    57.079459     28.53973    11395.356 
 4969000      4969000    20000    293.99637    -15.02666    232460.71    31604.704    -3485.531    17564.165   -4300.5952    2482.9383   -1667.8742    5888.7976    8785.5006    31553.761    14078.634     17526.07   0.61577226    142.69865    57.079459     28.53973    11397.584 
 4970000      4970000    20000    296.52658    46.903742    232460.71     31914.06   -3471.9837     17709.14   -4287.8822    2483.7662   -1667.8677    5962.4246    8856.6485    32073.074    14237.156    17676.904   0.61577226    142.69865    57.079459     28.53973    11399.856 
 4971000      4971000    20000    292.24825    564.46315    232460.71    31511.929   -3459.1594    17549.229   -4276.5828    2485.3282   -1667.9048    5806.4401    8854.2145    33425.573     14090.07    17421.859   0.61577226    142.69865    57.079459     28.53973    11402.118 
 4972000      4972000    20000    292.64425   -311.18741    232460.71    31701.111   -3487.6068    17743.251   -4303.3482    2483.6617   -1667.9203    5955.0429    8855.5244    30646.123    14255.645    17445.466   0.61577226    142.69865    57.079459     28.53973    11404.392 
 4973000      4973000    20000    299.72347    215.78029    232460.71    32069.788   -3477.4297    17679.736   -4295.2042    2485.7152   -1667.9406    5904.6202    8867.1941    32801.326    14202.307    17867.481   0.61577226    142.69865    57.079459     28.53973    11406.672 
 4974000      4974000    20000    295.51954    341.85594    232460.71    31784.076   -3458.7635    17625.968   -4273.8678    2482.9672   -1667.8629    5815.6032    8867.7853    32943.036    14167.205    17616.871   0.61577226    142.69865    57.079459     28.53973    11408.898 
 4975000      4975000    20000    291.80631    56.761808    232460.71    31309.095    -3505.988     17419.57   -4321.4203    2483.3905   -1667.9582    5727.9905    8818.2147    31501.529    13913.582    17395.514   0.61577226    142.69865    57.079459     28.53973    11411.144 
 4976000      4976000    20000    295.81297    28.950299    232460.71     31760.03   -3474.3297    17599.996   -4291.2781    2484.8725   -1667.9241     5865.099    8870.8987    31858.178    14125.666    17634.364   0.61577226    142.69865    57.079459     28.53973    11413.424 
 4977000      4977000    20000    297.34941   -103.52522    232460.71    31980.535    -3453.512    17708.091   -4271.3308    2485.7279   -1667.9091    5969.3216    8803.9529    31629.563    14254.579    17725.956   0.61577226    142.69865    57.079459     28.53973     11415.73 
 4978000      4978000    20000    294.95322    467.62593    232460.71    31614.122   -3437.8581    17468.868   -4250.3945    2480.4331   -1667.8968    5836.6956    8735.3763    33199.467     14031.01    17583.111   0.61577226    142.69865    57.079459     28.53973     11417.99 
 4979000      4979000    20000    297.52517   -62.855948    232460.71    31971.189   -3503.0767    17737.832   -4320.8394    2485.7004   -1667.9377    5938.4159    8876.2414    31758.094    14234.755    17736.433   0.61577226    142.69865    57.079459     28.53973    11420.286 
 4980000      4980000    20000    294.53852   -163.88199    232460.71    31558.363   -3475.6031    17475.576   -4288.4918    2480.8503   -1667.9616    5823.3681    8721.9966     31002.77    13999.973     17558.39   0.61577226    142.69865    57.079459     28.53973    11422.631 
 4981000      4981000    20000    294.64445   -31.096234    232460.71    31683.184   -3458.4718    17576.952   -4275.5781    2485.0553    -1667.949    5810.9798    8830.9506    31577.762     14118.48    17564.704   0.61577226    142.69865    57.079459     28.53973    11424.875 
 4982000      4982000    20000    295.62303   -295.85186    232460.71    31736.329   -3497.0259    17610.314    -4314.619    2485.5231   -1667.9301     5872.994     8838.724    30733.332    14113.288    17623.041   0.61577226    142.69865    57.079459     28.53973    11427.163 
 4983000      4983000    20000    296.14001   -436.95557    232460.71    31830.721   -3521.7699    17698.631   -4336.7887    2482.9114   -1667.8927    5894.3668      8892.43    30349.354    14176.861     17653.86   0.61577226    142.69865    57.079459     28.53973    11429.447 
 4984000      4984000    20000    293.03534   -493.24963    232460.71    31572.896   -3517.6508    17621.767    -4333.087     2483.361   -1667.9248    5933.7661    8766.7865    29900.681    14104.116     17468.78   0.61577226    142.69865    57.079459     28.53973    11431.727 
 4985000      4985000    20000    296.62883    28.617611    232460.71    31751.411   -3485.3221    17553.733   -4298.9516    2481.5717   -1667.9421    5841.3597    8799.9849    31848.431    14068.411        17683   0.61577226    142.69865    57.079459     28.53973    11434.166 
 4986000      4986000    20000    294.29664   -597.01117    232460.71    31668.436   -3505.2951    17629.761   -4321.9278    2484.5541   -1667.9214    5958.4835    8765.5949    29644.448    14124.466     17543.97   0.61577226    142.69865    57.079459     28.53973    11436.551 
 4987000      4987000    20000    296.80292   -110.99197    232460.71    31816.932   -3530.4599    17654.014   -4346.0959    2483.5408   -1667.9048    5883.3837    8823.0725    31440.646    14123.554    17693.378   0.61577226    142.69865    57.079459     28.53973    11438.803 
 4988000      4988000    20000    295.72482   -308.70502    232460.71    31778.926   -3494.9555    17644.773   -4312.9953    2485.9403   -1667.9006    5969.6657    8774.6062    30732.354    14149.817    17629.109   0.61577226    142.69865    57.079459     28.53973    11441.083 
 4989000      4989000    20000    292.16047   -196.38644    232460.71    31540.928   -3463.3808    17587.682   -4277.0336    2481.6124   -1667.9595    5832.4832    8836.9031    30875.139    14124.301    17416.627   0.61577226    142.69865    57.079459     28.53973    11443.357 
 4990000      4990000    20000    294.34203   -274.06075    232460.71     31697.92   -3533.5963     17684.84   -4348.2625    2482.5915   -1667.9252    5953.6818    8848.3166    30768.799    14151.244    17546.676   0.61577226    142.69865    57.079459     28.53973    11445.606 
 4991000      4991000    20000     297.5969   -60.969355    232460.71    31858.226   -3500.0891    17617.606   -4319.4595    2487.2575   -1667.8871    5852.8767    8867.4829    31651.528    14117.516     17740.71   0.61577226    142.69865    57.079459     28.53973    11447.853 
 4992000      4992000    20000    293.51629    128.16065    232460.71    31543.008   -3485.2403    17530.797   -4300.2283    2482.9226   -1667.9346    5920.2343    8719.1571    31977.498    14045.557    17497.451   0.61577226    142.69865    57.079459     28.53973    11450.089 
 4993000      4993000    20000    294.79716   -329.22368    232460.71    31818.563   -3504.3486    17749.103   -4319.8273    2483.4082   -1667.9296    5898.6381    8935.3481    30702.428    14244.754    17573.808   0.61577226    142.69865    57.079459     28.53973    11452.321 
 4994000      4994000    20000    292.57539   -99.125321    232460.71    31603.555   -3514.4621    17676.656   -4332.9335    2486.4475   -1667.9761    5921.5684    8831.4175      31267.5    14162.194    17441.361   0.61577226    142.69865    57.079459     28.53973    11454.535 
 4995000      4995000    20000    295.75706   -340.04621    232460.71    31791.306   -3535.9108    17696.186   -4351.5754    2483.5912   -1667.9267    5897.6955    8916.7322    30638.481    14160.275    17631.031   0.61577226    142.69865    57.079459     28.53973      11456.8 
 4996000      4996000    20000    292.67821    39.913043    232460.71    31629.918   -3470.0133    17652.441    -4288.188    2486.1148   -1667.9401     5866.172    8913.2244    31765.231    14182.428    17447.491   0.61577226    142.69865    57.079459     28.53973    11459.078 
 4997000      4997000    20000    294.89368    206.84301    232460.71    31709.583   -3485.4006    17615.421   -4300.2401    2482.8028   -1667.9632    5847.4762    8834.0059    32410.822    14130.021    17579.562   0.61577226    142.69865    57.079459     28.53973     11461.38 
 4998000      4998000    20000      297.776   -246.67346    232460.71    31701.163   -3534.1257    17483.903   -4345.9627    2479.7629    -1667.926    5857.8021    8663.5662     30864.89    13949.777    17751.386   0.61577226    142.69865    57.079459     28.53973    11463.673 
 4999000      4999000    20000    294.26168    139.62576    232460.71    31539.379   -3505.3464     17502.84   -4322.5838    2485.1471   -1667.9098    5845.2966    8773.1303    32012.739    13997.493    17541.886   0.61577226    142.69865    57.079459     28.53973    11465.964 
 5000000      5000000    20000     294.2547   -171.00636    232460.71    31719.962   -3484.9309    17663.423   -4304.7541    2487.7031   -1667.8799    5963.5867    8776.1025    31140.216    14178.492     17541.47   0.61577226    142.69865    57.079459     28.53973     11468.25 
Loop time of 11468.3 on 96 procs for 5000000 steps with 20000 atoms

Performance: 37.669 ns/day, 0.637 hours/ns, 435.986 timesteps/s
99.2% CPU use with 96 MPI tasks x no OpenMP threads

MPI task timing breakdown:
Section |  min time  |  avg time  |  max time  |%varavg| %total
---------------------------------------------------------------
Pair    | 5938.1     | 6300.6     | 6666.7     | 262.2 | 54.94
Bond    | 388.23     | 398.08     | 497.73     |  60.0 |  3.47
Kspace  | 2804       | 3191.9     | 3566.7     | 390.9 | 27.83
Neigh   | 572.88     | 575.17     | 578.2      |   5.0 |  5.02
Comm    | 496.59     | 540.55     | 586.76     | 121.0 |  4.71
Output  | 33.851     | 33.854     | 33.927     |   0.1 |  0.30
Modify  | 352.74     | 379.31     | 405.31     |  81.5 |  3.31
Other   |            | 48.7       |            |       |  0.42

Nlocal:    208.333 ave 237 max 162 min
Histogram: 1 1 5 8 12 11 18 21 13 6
Nghost:    4315.62 ave 4448 max 4164 min
Histogram: 4 4 9 13 8 16 17 12 7 6
Neighs:    64935.2 ave 77352 max 45884 min
Histogram: 2 1 1 12 13 13 17 25 6 6

Total # of neighbors = 6233777
Ave neighs/atom = 311.689
Ave special neighs/atom = 10
Neighbor list builds = 188828
Dangerous builds = 0
System init for write_data ...
PPPM initialization ...
  using 12-bit tables for long-range coulomb (../kspace.cpp:323)
  G vector (1/distance) = 0.146231
  grid = 20 8 6
  stencil order = 5
  estimated absolute RMS force accuracy = 0.0312614
  estimated relative force accuracy = 9.41427e-05
  using double precision KISS FFT
  3d grid and FFT values/proc = 392 20
Total wall time: 3:11:09
TACC:  Shutdown complete. Exiting. 
