undefined

1 atom types

1728 atoms

0.000000 100.000000 xlo xhi
0.000000 100.000000 ylo yhi
0.000000 100.000000 zlo zhi

Masses

1 32.000000 # MeOH

Atoms

1 1 1  52.090858 37.430546 32.630920
2 2 1  55.464264 56.516430 21.569420
3 3 1  60.295166 37.595364 61.025631
4 4 1  24.439800 48.918915 34.822998
5 5 1  30.672840 50.226833 58.322292
6 6 1  59.509304 53.424625 34.293056
7 7 1  53.849361 64.468132 57.930252
8 8 1  61.235252 63.042538 60.917156
9 9 1  58.814873 32.182018 32.352016
10 10 1  39.365807 69.972687 65.793556
11 11 1  57.976574 71.382637 61.756157
12 12 1  28.707830 53.957081 52.372162
13 13 1  58.843552 57.258118 21.255625
14 14 1  33.296627 55.330612 66.448479
15 15 1  49.321491 21.415983 43.019775
16 16 1  48.343361 40.732643 70.050964
17 17 1  26.120897 49.895073 50.613644
18 18 1  35.054634 33.163799 33.936161
19 19 1  76.016296 56.433907 69.122772
20 20 1  42.877895 55.059731 40.527805
21 21 1  52.406467 52.734009 73.301964
22 22 1  40.773727 45.133141 76.338203
23 23 1  32.881081 32.258686 48.216156
24 24 1  46.412971 48.128067 74.742645
25 25 1  56.527161 32.855217 56.559525
26 26 1  26.916796 60.020893 46.295094
27 27 1  68.490219 47.671513 54.103058
28 28 1  66.028709 40.668613 38.854809
29 29 1  75.009857 50.018219 52.845703
30 30 1  33.339622 48.629040 28.912794
31 31 1  56.601730 57.716015 24.667507
32 32 1  67.488960 69.156746 48.237759
33 33 1  75.799988 61.224609 57.844410
34 34 1  57.589764 32.249660 63.804607
35 35 1  34.732704 64.171356 47.864357
36 36 1  44.494717 46.216633 46.003834
37 37 1  62.798752 61.785931 67.779213
38 38 1  68.799774 64.675758 64.995438
39 39 1  49.382347 55.617710 61.842331
40 40 1  51.045567 54.503094 31.513235
41 41 1  52.885036 44.383293 75.104218
42 42 1  47.688423 38.175404 63.550858
43 43 1  49.551285 56.137970 72.336960
44 44 1  30.562868 51.271461 44.342381
45 45 1  50.277203 64.681206 69.818985
46 46 1  45.083214 71.264427 44.396648
47 47 1  24.330627 41.379475 50.868725
48 48 1  49.742638 63.053635 24.663412
49 49 1  55.992081 66.501778 34.133808
50 50 1  36.626797 35.121204 53.458698
51 51 1  41.336025 40.929192 26.285309
52 52 1  63.370361 59.248379 57.376385
53 53 1  70.864281 30.899309 49.604530
54 54 1  55.749901 50.939198 68.993835
55 55 1  29.143782 65.500854 64.580704
56 56 1  48.138443 71.246376 29.457485
57 57 1  67.174103 58.534798 59.316944
58 58 1  34.640175 46.073833 43.898975
59 59 1  40.915775 57.213745 63.169659
60 60 1  59.886311 34.493858 41.744022
61 61 1  65.768585 34.686855 56.590309
62 62 1  75.486221 60.720608 53.387012
63 63 1  51.429077 53.906811 28.377649
64 64 1  52.252792 60.687302 68.021095
65 65 1  44.361603 86.129036 19.636238
66 66 1  69.876717 38.250713 63.858223
67 67 1  54.807980 66.947327 39.105988
68 68 1  46.288940 69.977303 34.820019
69 69 1  38.706009 54.050743 35.626507
70 70 1  24.930960 39.700695 56.297832
71 71 1  48.666576 46.426624 31.228258
72 72 1  34.056396 50.239498 55.077709
73 73 1  52.594398 37.575249 51.677185
74 74 1  63.493668 57.547066 32.031765
75 75 1  40.519947 49.754101 76.736290
76 76 1  37.920181 55.075817 59.149963
77 77 1  47.226151 20.114389 49.766792
78 78 1  74.195747 64.330315 55.392307
79 79 1  64.386414 65.819252 46.898422
80 80 1  55.951164 74.275513 33.014576
81 81 1  65.809341 31.174520 50.560883
82 82 1  36.550755 37.992756 48.143059
83 83 1  71.815926 41.836952 42.379723
84 84 1  52.156651 55.464634 68.916206
85 85 1  29.564779 68.294090 57.899033
86 86 1  39.276981 57.738564 27.977631
87 87 1  54.043621 39.857044 63.053841
88 88 1  35.578495 41.159691 66.879684
89 89 1  43.270054 22.629169 53.251118
90 90 1  47.775486 53.748737 50.651257
91 91 1  56.695465 64.667618 44.966721
92 92 1  58.023136 41.741920 42.604881
93 93 1  54.379517 51.133999 32.904778
94 94 1  38.811375 39.027653 53.029453
95 95 1  41.831501 71.536804 57.137642
96 96 1  73.581100 66.649307 44.176182
97 97 1  49.248142 37.354473 51.149071
98 98 1  44.744888 75.649788 50.170528
99 99 1  59.617504 42.688122 64.874962
100 100 1  51.467628 33.415882 60.106525
101 101 1  57.057072 63.828049 68.040894
102 102 1  58.300495 73.084145 47.069153
103 103 1  43.911697 56.145233 15.811567
104 104 1  61.134727 46.474068 35.417896
105 105 1  55.730816 53.610962 28.099600
106 106 1  57.783897 59.261101 71.994339
107 107 1  64.814941 35.156841 65.203262
108 108 1  70.992271 67.261230 41.140060
109 109 1  51.805386 52.445454 70.218002
110 110 1  61.948067 54.316444 32.358421
111 111 1  32.800545 39.267986 63.708744
112 112 1  74.914146 49.783821 39.719074
113 113 1  62.330223 58.141315 53.562469
114 114 1  47.536274 26.866159 48.877541
115 115 1  66.531334 56.969864 71.424576
116 116 1  31.326221 39.249359 55.502312
117 117 1  99.831078 66.429947 51.755314
118 118 1  50.203705 39.991985 44.084469
119 119 1  25.131506 44.816139 60.172089
120 120 1  45.560448 43.220299 60.181042
121 121 1  41.512463 37.508202 67.194542
122 122 1  47.660709 36.736996 26.207565
123 123 1  38.949608 44.615101 59.023232
124 124 1  32.805710 38.295513 41.412853
125 125 1  32.899754 70.663094 49.959007
126 126 1  38.625305 73.444717 51.951534
127 127 1  63.645363 57.999676 42.477982
128 128 1  24.780945 64.018837 48.175323
129 129 1  64.780792 65.866089 65.958893
130 130 1  44.473232 74.850548 38.194786
131 131 1  56.199169 49.041420 30.914673
132 132 1  51.428436 57.092560 27.317980
133 133 1  54.630615 41.146477 39.430763
134 134 1  47.574982 24.848343 45.868595
135 135 1  60.574753 56.566158 42.886887
136 136 1  51.608021 26.338341 51.067009
137 137 1  45.681828 63.905342 36.060799
138 138 1  31.611790 52.402336 69.874336
139 139 1  58.290390 54.881924 37.409496
140 140 1  53.552002 65.236954 69.983177
141 141 1  59.540958 62.581268 41.411366
142 142 1  45.551228 59.861603 26.886011
143 143 1  26.693428 70.490143 54.805832
144 144 1  52.277164 60.120014 30.692513
145 145 1  66.561623 32.178635 39.838078
146 146 1  56.390785 50.041954 74.784676
147 147 1  54.754070 36.590664 48.908882
148 148 1  79.528786 57.786537 51.493340
149 149 1  49.441425 50.913223 48.171574
150 150 1  25.209362 52.429573 43.319042
151 151 1  65.904793 58.606293 49.277325
152 152 1  56.889454 40.247658 73.401657
153 153 1  44.496750 57.426399 54.206310
154 154 1  48.182220 22.617649 62.550938
155 155 1  52.315407 72.380539 60.161194
156 156 1  32.847538 50.779724 40.597664
157 157 1  57.791790 24.168495 59.857933
158 158 1  19.961731 43.129837 40.080803
159 159 1  57.101032 53.400513 66.045204
160 160 1  27.293152 46.893101 45.392792
161 161 1  28.875587 50.451954 68.725975
162 162 1  34.981712 43.158707 62.864353
163 163 1  55.790638 28.999830 52.005398
164 164 1  44.529194 54.131424 53.799969
165 165 1  39.002815 34.581387 38.295498
166 166 1  51.628712 54.930313 43.446529
167 167 1  67.759087 59.451351 45.092506
168 168 1  35.072342 70.614357 27.947210
169 169 1  46.085426 32.522015 62.769337
170 170 1  34.175583 35.141418 37.936035
171 171 1  59.636681 35.024197 37.685135
172 172 1  35.128571 56.657150 40.200287
173 173 1  72.282417 48.738613 41.981312
174 174 1  52.244366 56.300884 54.642105
175 175 1  52.107048 42.578125 41.835270
176 176 1  23.474991 43.616844 70.791733
177 177 1  72.753075 46.814770 37.501526
178 178 1  35.466900 35.338512 49.571903
179 179 1  51.390743 25.949989 43.588226
180 180 1  36.486076 24.593378 42.246132
181 181 1  35.706921 53.958889 22.211702
182 182 1  42.613804 61.969292 63.210323
183 183 1  44.804741 25.287634 61.577068
184 184 1  36.394535 62.597092 34.507328
185 185 1  24.065596 61.329903 43.440727
186 186 1  54.587955 46.204311 22.525164
187 187 1  67.166687 37.074852 30.842764
188 188 1  64.227234 65.157158 61.773193
189 189 1  34.679916 50.381832 49.562996
190 190 1  41.983295 53.962612 61.459896
191 191 1  51.534664 41.661900 49.920567
192 192 1  70.380089 72.952484 49.975010
193 193 1  69.635719 55.447685 46.401138
194 194 1  56.322380 73.856323 57.845032
195 195 1  38.501926 50.601566 52.849823
196 196 1  33.497154 61.769833 44.095387
197 197 1  76.483963 38.321617 54.130322
198 198 1  20.303860 48.613556 43.648548
199 199 1  56.732300 35.991089 55.692886
200 200 1  56.569496 71.054596 44.067841
201 201 1  70.593582 35.195717 43.585262
202 202 1  55.496792 67.116692 42.663765
203 203 1  77.955154 49.780861 54.662384
204 204 1  71.350418 46.440739 67.000496
205 205 1  41.549515 41.565739 30.052032
206 206 1  51.539181 36.343864 47.546730
207 207 1  30.537338 69.867943 47.320446
208 208 1  35.214195 44.388054 31.354013
209 209 1  28.707674 56.208473 32.611233
210 210 1  53.901760 49.450684 57.044762
211 211 1  65.752899 47.548195 31.943468
212 212 1  75.390961 58.119900 43.770988
213 213 1  62.558460 33.189678 18.278561
214 214 1  57.896935 67.251595 28.774061
215 215 1  49.218380 61.905552 33.767433
216 216 1  57.326786 44.026558 36.423668
217 217 1  46.954319 25.221027 68.900551
218 218 1  28.299694 65.161041 56.940952
219 219 1  33.417095 72.259956 56.304970
220 220 1  66.074593 54.428604 38.829872
221 221 1  74.642494 41.518223 37.688389
222 222 1  60.492939 29.325310 52.217064
223 223 1  47.335052 47.195217 57.453720
224 224 1  31.765297 43.870785 60.536686
225 225 1  43.693451 39.226833 29.406807
226 226 1  53.461342 29.954662 69.721870
227 227 1  35.191673 69.123505 57.737480
228 228 1  39.972572 59.428722 37.886002
229 229 1  54.142693 37.286366 71.805649
230 230 1  65.288933 61.091118 59.653423
231 231 1  39.404163 38.597275 73.812080
232 232 1  64.274284 51.246418 65.154121
233 233 1  57.368534 37.080898 40.749569
234 234 1  66.826454 71.397934 43.668243
235 235 1  48.067383 52.845608 63.018494
236 236 1  49.435829 58.846161 36.647892
237 237 1  68.807304 33.920082 52.877819
238 238 1  22.742332 40.967300 54.076950
239 239 1  62.161041 58.514908 73.853813
240 240 1  24.646900 60.437805 51.594517
241 241 1  49.888824 35.445492 72.654175
242 242 1  51.046204 49.621239 62.289948
243 243 1  34.709183 52.944412 72.719177
244 244 1  43.908199 59.728848 21.600519
245 245 1  49.568619 59.473679 72.238266
246 246 1  39.553497 38.499527 49.769611
247 247 1  42.848152 66.291214 37.350677
248 248 1  53.138767 58.390450 22.586390
249 249 1  65.566536 46.038872 69.116074
250 250 1  39.729668 36.392860 62.141472
251 251 1  22.836153 45.736980 55.259506
252 252 1  18.985273 48.778973 58.902473
253 253 1  39.668732 25.806795 42.490589
254 254 1  50.966557 42.575226 37.080528
255 255 1  49.185596 44.229988 40.683701
256 256 1  22.734468 64.697968 56.351009
257 257 1  34.736061 59.966770 55.464100
258 258 1  33.740791 52.322929 58.111790
259 259 1  47.902550 47.970490 34.213169
260 260 1  50.008762 24.976318 63.388538
261 261 1  64.653793 40.468491 50.121231
262 262 1  35.475430 58.815853 50.105831
263 263 1  50.414227 26.774405 40.636566
264 264 1  77.231003 43.510712 45.035595
265 265 1  74.100327 42.542873 53.983284
266 266 1  29.031912 53.851791 63.012234
267 267 1  78.165344 60.977009 51.577415
268 268 1  28.300016 42.879959 33.504028
269 269 1  64.026230 56.404602 61.978596
270 270 1  71.277199 67.361885 34.675766
271 271 1  40.076668 38.774811 32.749550
272 272 1  39.852600 69.001167 60.436672
273 273 1  59.230549 58.171391 54.322567
274 274 1  41.934170 52.769272 65.143944
275 275 1  40.720688 56.382996 31.647795
276 276 1  60.565315 51.772381 61.880661
277 277 1  52.546516 23.579716 67.889244
278 278 1  47.503395 41.255035 65.662735
279 279 1  54.309788 54.074402 61.930447
280 280 1  77.581818 52.229015 57.138844
281 281 1  43.070793 34.722816 50.952488
282 282 1  25.884842 37.685051 47.625687
283 283 1  64.166199 34.481953 31.758305
284 284 1  67.716743 70.125397 57.500065
285 285 1  35.447010 64.415009 52.353779
286 286 1  43.119961 72.293015 60.608482
287 287 1  48.177490 43.414928 47.511589
288 288 1  11.680018 67.876396 58.021519
289 289 1  43.415501 52.816284 23.672758
290 290 1  57.759678 51.625793 46.749638
291 291 1  48.608356 43.009998 22.927790
292 292 1  65.768967 49.110180 57.790279
293 293 1  61.268555 57.807606 70.327614
294 294 1  39.328106 64.214737 55.032616
295 295 1  48.332237 53.341579 33.495052
296 296 1  67.439133 29.650406 58.444393
297 297 1  49.943745 42.868286 33.307499
298 298 1  40.748394 59.281506 57.979378
299 299 1  41.740643 74.593224 44.963768
300 300 1  71.658157 51.604458 56.076408
301 301 1  65.103073 30.120304 35.820210
302 302 1  36.079960 63.231388 60.938602
303 303 1  60.641968 39.210682 31.241106
304 304 1  52.539528 64.049469 31.599745
305 305 1  45.235733 41.595970 41.223610
306 306 1  58.585178 56.805759 66.545479
307 307 1  68.010895 74.277451 48.300034
308 308 1  72.668701 60.922653 56.235504
309 309 1  47.368877 68.612045 44.501713
310 310 1  47.044235 64.710419 64.940704
311 311 1  41.421127 29.369186 33.916176
312 312 1  66.240913 45.060257 44.386501
313 313 1  47.381805 67.843361 38.152016
314 314 1  45.960747 49.387253 23.572001
315 315 1  64.320282 42.079437 66.894737
316 316 1  29.491680 37.334175 57.227032
317 317 1  73.638741 38.392284 39.345974
318 318 1  63.998730 60.564743 38.192188
319 319 1  43.712463 37.551395 34.431213
320 320 1  38.694328 54.226227 39.143635
321 321 1  55.975334 59.848335 57.588844
322 322 1  41.078758 45.109741 69.288368
323 323 1  45.013191 57.174370 22.821421
324 324 1  53.212627 67.166374 51.742989
325 325 1  38.660774 46.740623 27.967590
326 326 1  51.838833 40.607605 46.860634
327 327 1  52.916817 54.266979 49.766144
328 328 1  44.338982 64.309906 51.603111
329 329 1  74.237816 71.876373 51.225304
330 330 1  54.073719 73.103317 39.835484
331 331 1  37.806332 56.068626 53.639076
332 332 1  64.336571 76.198914 57.422588
333 333 1  47.017876 26.034494 38.988564
334 334 1  51.751137 45.251774 60.261024
335 335 1  63.936340 50.735111 35.472366
336 336 1  43.018738 37.215900 42.823101
337 337 1  38.726761 31.573076 24.076485
338 338 1  68.369591 48.748188 33.847271
339 339 1  51.936333 40.485886 33.973930
340 340 1  36.455566 60.834877 38.896851
341 341 1  31.241905 69.759811 52.941517
342 342 1  39.735687 42.308182 47.960030
343 343 1  30.970814 46.220436 33.253613
344 344 1  66.954018 43.222488 57.339588
345 345 1  63.471764 54.904324 50.829277
346 346 1  80.928940 38.242901 54.881241
347 347 1  72.831848 34.926014 38.611843
348 348 1  41.371189 63.079948 36.058144
349 349 1  44.163574 25.776808 47.101974
350 350 1  36.645271 51.914654 33.805798
351 351 1  44.257111 77.216629 54.560028
352 352 1  64.850632 32.275536 46.539558
353 353 1  59.501423 33.480659 46.565968
354 354 1  77.274147 36.489944 57.743683
355 355 1  63.139820 34.414551 35.696301
356 356 1  57.276955 27.791616 38.466095
357 357 1  38.121567 46.142181 33.237759
358 358 1  68.108620 41.133556 68.939575
359 359 1  74.941261 33.622021 40.916851
360 360 1  28.682047 51.796745 38.928879
361 361 1  63.445004 36.986294 54.101620
362 362 1  48.762604 40.236813 26.370420
363 363 1  31.142742 60.386818 57.531910
364 364 1  43.270100 51.310383 59.424107
365 365 1  65.924278 50.819592 68.225876
366 366 1  25.201887 47.551933 62.003635
367 367 1  45.280075 56.410114 61.652584
368 368 1  36.786877 41.813282 39.731041
369 369 1  64.771774 61.513798 64.720528
370 370 1  35.736908 48.386177 73.299355
371 371 1  71.500221 38.166107 52.348034
372 372 1  55.880978 45.059025 63.121506
373 373 1  54.910881 41.479073 22.328728
374 374 1  59.243690 53.904823 22.009354
375 375 1  35.410408 55.242504 75.373871
376 376 1  74.824265 56.801723 39.455025
377 377 1  67.473839 26.698233 54.510921
378 378 1  32.855827 56.171661 44.074936
379 379 1  22.548658 49.451324 50.267792
380 380 1  41.498318 39.694519 61.617435
381 381 1  63.910809 56.866077 39.373158
382 382 1  51.690300 37.228035 43.541367
383 383 1  59.144066 45.861023 39.421642
384 384 1  56.409996 69.849152 71.026222
385 385 1  49.812962 47.219273 24.053919
386 386 1  76.693878 53.531532 39.969711
387 387 1  30.691790 41.446701 67.584160
388 388 1  43.630650 45.092098 39.561119
389 389 1  28.636869 47.926456 59.622444
390 390 1  35.475307 36.296047 25.707479
391 391 1  60.028530 37.967903 54.673855
392 392 1  63.841351 29.515406 52.970505
393 393 1  55.896950 33.562969 42.533772
394 394 1  44.957611 42.816349 27.395367
395 395 1  38.563255 75.447830 45.064816
396 396 1  31.291451 67.452362 45.671917
397 397 1  74.550507 48.399605 49.125004
398 398 1  46.616592 78.356148 50.157612
399 399 1  55.092434 76.410500 40.737545
400 400 1  54.874565 44.984547 48.634594
401 401 1  52.944962 45.311405 69.758743
402 402 1  63.889362 62.816292 30.518431
403 403 1  40.210499 38.868004 42.402897
404 404 1  34.315994 53.932972 53.204441
405 405 1  49.170444 43.850456 73.280128
406 406 1  72.830643 36.216682 32.048054
407 407 1  48.908386 62.070061 44.385250
408 408 1  29.434248 39.489315 39.640285
409 409 1  60.616608 74.838127 35.870667
410 410 1  67.708374 34.606575 48.769554
411 411 1  22.167181 53.847073 52.859951
412 412 1  71.650696 56.854092 41.915585
413 413 1  41.570641 43.055202 37.459366
414 414 1  50.741962 40.759640 55.047493
415 415 1  67.308578 35.964199 37.020874
416 416 1  55.421646 43.681141 30.090044
417 417 1  52.611153 47.401199 64.116272
418 418 1  62.114880 30.864031 68.108803
419 419 1  51.574432 60.156590 59.251888
420 420 1  27.569975 62.161118 42.377888
421 421 1  35.769592 46.276524 63.166218
422 422 1  36.314709 38.007385 28.538740
423 423 1  71.519127 62.691177 64.806313
424 424 1  34.235798 33.650612 55.007633
425 425 1  61.716408 52.726437 37.375870
426 426 1  75.041924 53.102718 36.843964
427 427 1  75.095947 54.863430 57.302818
428 428 1  28.647520 34.121174 56.963161
429 429 1  43.807632 50.374527 74.013519
430 430 1  55.190041 56.994823 29.559036
431 431 1  43.042061 31.940765 35.704422
432 432 1  47.166779 36.402073 44.768002
433 433 1  19.443003 51.276283 47.784985
434 434 1  17.814041 9.483935 37.331291
435 435 1  51.711933 64.146576 26.932453
436 436 1  32.093021 38.322029 34.446411
437 437 1  63.943130 42.562386 59.660786
438 438 1  20.778311 52.637314 42.843353
439 439 1  38.920403 46.572193 72.203629
440 440 1  44.054375 35.847122 46.319668
441 441 1  25.644169 50.715973 60.770901
442 442 1  35.597736 38.155197 55.663376
443 443 1  63.507618 49.240723 60.321869
444 444 1  29.300869 56.882378 67.416527
445 445 1  61.986179 55.868916 35.354980
446 446 1  55.495083 49.136623 63.716457
447 447 1  52.502010 57.581245 64.238441
448 448 1  43.660549 48.312275 31.153955
449 449 1  65.504280 76.389290 52.901417
450 450 1  63.469322 53.375587 41.031853
451 451 1  66.041565 67.728111 54.435829
452 452 1  35.963600 54.740742 50.095421
453 453 1  33.074989 46.171062 67.682472
454 454 1  38.318668 74.969879 40.572018
455 455 1  17.808405 48.166534 46.839901
456 456 1  72.213654 54.471130 53.487495
457 457 1  72.802055 58.493717 59.726768
458 458 1  49.666283 69.339912 36.039562
459 459 1  51.716293 74.978493 56.501633
460 460 1  70.684509 57.839394 48.842007
461 461 1  27.960646 58.103661 64.911720
462 462 1  36.882526 55.631676 63.512238
463 463 1  60.544724 31.836287 54.871098
464 464 1  59.571697 41.642967 60.506454
465 465 1  45.534809 58.375801 30.990084
466 466 1  63.236748 63.773373 57.011139
467 467 1  23.740156 45.680656 73.754684
468 468 1  55.625832 78.865120 45.642296
469 469 1  72.704926 49.104507 70.265343
470 470 1  51.631252 59.903084 40.821613
471 471 1  18.743689 51.373928 38.250771
472 472 1  57.459148 59.062916 47.243019
473 473 1  71.946915 43.255718 68.056252
474 474 1  64.064789 40.296925 63.690350
475 475 1  62.027584 33.973927 48.090797
476 476 1  50.009258 48.319302 43.342781
477 477 1  55.752857 36.172508 36.583633
478 478 1  46.733875 50.095047 52.397434
479 479 1  61.478710 29.419382 35.259075
480 480 1  58.657040 35.545219 51.647171
481 481 1  74.194748 40.004475 60.239151
482 482 1  47.738605 41.708130 30.736380
483 483 1  36.615395 31.039856 51.454052
484 484 1  67.073074 37.871330 40.452324
485 485 1  70.963608 59.574375 39.012241
486 486 1  39.496986 67.987923 56.982777
487 487 1  47.515472 67.068825 67.885254
488 488 1  77.934006 45.976532 47.534184
489 489 1  78.998260 64.290146 40.414005
490 490 1  57.069031 43.262802 72.203163
491 491 1  66.911041 50.602741 36.419579
492 492 1  38.287621 25.097694 53.450043
493 493 1  36.671585 65.025787 26.922974
494 494 1  65.355118 46.143440 53.405819
495 495 1  59.074680 22.116289 62.069519
496 496 1  44.431488 39.364590 51.485691
497 497 1  72.923912 35.120281 58.839615
498 498 1  50.940983 66.959595 27.845284
499 499 1  44.967556 52.681324 20.473146
500 500 1  55.612415 25.179943 67.454750
501 501 1  25.588547 56.907646 59.231342
502 502 1  66.468605 41.136196 54.009735
503 503 1  42.923370 59.932022 41.498573
504 504 1  50.285717 46.739590 21.048794
505 505 1  51.435677 69.648773 41.675056
506 506 1  61.265469 28.904819 49.277687
507 507 1  46.101501 22.029474 43.819054
508 508 1  59.217876 64.103203 64.759827
509 509 1  46.485653 70.433372 40.368755
510 510 1  33.047798 62.076080 51.863979
511 511 1  48.363247 21.289946 65.611504
512 512 1  79.905426 55.425785 43.160412
513 513 1  28.348459 33.164970 53.505623
514 514 1  71.863754 69.627129 63.829670
515 515 1  69.119888 56.774208 61.171490
516 516 1  20.363251 55.742531 56.337261
517 517 1  63.545139 72.012192 64.511253
518 518 1  33.072903 50.132935 66.503807
519 519 1  54.321896 58.200691 43.476147
520 520 1  43.831150 49.077587 19.358009
521 521 1  41.421688 69.799065 33.954674
522 522 1  49.916500 24.052668 57.480377
523 523 1  80.518539 53.108879 50.137745
524 524 1  52.387806 72.571404 35.981148
525 525 1  67.942665 44.893726 63.220451
526 526 1  53.887863 64.004654 76.334229
527 527 1  34.946594 34.882130 58.259491
528 528 1  53.905975 42.683014 58.706882
529 529 1  64.322662 45.118595 35.459587
530 530 1  44.907078 73.503922 57.142696
531 531 1  54.314339 79.706947 40.585358
532 532 1  67.788292 62.064930 46.871002
533 533 1  48.827637 34.842663 54.921806
534 534 1  37.823906 71.643692 55.041897
535 535 1  58.220734 59.365540 34.223633
536 536 1  45.253155 46.607460 53.091709
537 537 1  76.988846 43.489471 34.860500
538 538 1  57.312408 29.091154 33.277164
539 539 1  58.049652 64.687508 37.126987
540 540 1  59.719593 57.379692 39.152935
541 541 1  54.617977 49.825806 26.260002
542 542 1  37.495560 30.315943 41.186794
543 543 1  24.145861 54.189960 40.195210
544 544 1  24.679228 44.690762 51.382381
545 545 1  37.236088 36.161213 40.414288
546 546 1  56.215527 51.795383 59.901283
547 547 1  58.717617 45.783535 27.797684
548 548 1  41.794724 73.747139 39.418671
549 549 1  53.365524 79.306236 48.276875
550 550 1  25.391237 46.898621 32.055435
551 551 1  39.239540 47.788872 49.939995
552 552 1  62.500927 33.194725 52.449173
553 553 1  46.115303 55.218006 30.433975
554 554 1  49.102322 29.383844 36.593742
555 555 1  78.529732 46.556698 52.275574
556 556 1  61.252018 43.807026 38.108181
557 557 1  75.995132 68.400871 49.092823
558 558 1  59.627899 28.421783 57.232059
559 559 1  57.812080 62.691242 72.460869
560 560 1  46.322079 26.477446 58.089882
561 561 1  46.410141 70.298096 56.785583
562 562 1  24.388309 59.324512 56.886177
563 563 1  67.152771 75.806007 56.072372
564 564 1  57.259483 62.199345 26.927284
565 565 1  54.623634 70.895004 50.173576
566 566 1  38.822636 52.862690 68.243004
567 567 1  45.183296 44.814877 33.666618
568 568 1  53.737831 62.480419 72.287857
569 569 1  43.564831 26.541969 69.230034
570 570 1  53.545837 48.450176 76.465141
571 571 1  39.020664 44.081249 54.996052
572 572 1  72.167030 52.232525 38.169785
573 573 1  46.449310 56.718178 26.231930
574 574 1  41.915997 66.625809 32.501900
575 575 1  66.555832 49.521694 40.491726
576 576 1  74.964684 61.143681 35.693226
577 577 1  45.651424 59.770054 64.676338
578 578 1  73.799957 57.140747 35.161572
579 579 1  43.167221 40.518555 67.659988
580 580 1  55.214771 47.602280 52.451344
581 581 1  43.198360 40.720726 34.844631
582 582 1  48.218319 30.548487 60.930576
583 583 1  59.310085 76.514679 32.539005
584 584 1  36.950798 57.802704 74.138893
585 585 1  67.691719 34.618553 42.313423
586 586 1  43.034393 42.058834 78.007454
587 587 1  71.845375 63.208195 38.159931
588 588 1  36.714554 40.572731 61.054810
589 589 1  65.012573 44.656143 64.937759
590 590 1  34.819130 68.854179 30.950195
591 591 1  65.250870 29.427916 47.537575
592 592 1  33.171276 51.972195 63.833481
593 593 1  58.112320 37.749001 29.664806
594 594 1  68.855774 52.433567 43.936073
595 595 1  59.410034 66.568512 58.588814
596 596 1  72.299820 57.545376 51.839485
597 597 1  65.100159 74.569656 63.151512
598 598 1  69.424347 52.980850 68.372162
599 599 1  79.593246 59.190315 47.888855
600 600 1  30.446030 45.983593 63.231319
601 601 1  40.208660 31.817621 43.404594
602 602 1  47.960533 34.220341 65.181396
603 603 1  44.008881 37.804062 64.242874
604 604 1  69.686035 51.121010 47.553692
605 605 1  33.943947 64.217224 36.066559
606 606 1  70.169312 29.608362 53.683376
607 607 1  49.259480 51.231949 40.962025
608 608 1  29.493408 56.296890 48.536304
609 609 1  47.404957 68.276428 49.154804
610 610 1  37.305031 59.681618 30.053844
611 611 1  61.823864 45.015316 50.467278
612 612 1  50.217407 56.885727 41.419529
613 613 1  34.597416 29.274426 48.379856
614 614 1  45.569023 62.919170 44.270287
615 615 1  49.133030 66.342140 33.046356
616 616 1  75.265541 34.838097 44.215618
617 617 1  51.649563 37.431931 40.321812
618 618 1  79.458565 43.782234 53.674904
619 619 1  62.043385 43.427227 32.479385
620 620 1  41.324375 48.989388 28.852434
621 621 1  38.373329 24.299595 49.862717
622 622 1  71.514099 62.416080 59.365704
623 623 1  37.863354 59.417202 54.152843
624 624 1  38.941368 36.051201 71.596268
625 625 1  28.083492 60.784935 55.609241
626 626 1  30.337851 50.170532 53.670067
627 627 1  53.059082 77.071617 44.559315
628 628 1  62.283337 71.362747 50.781761
629 629 1  29.278791 34.988762 40.090988
630 630 1  55.790825 58.204605 68.205162
631 631 1  52.269558 65.396019 47.112545
632 632 1  62.260384 28.983274 65.535324
633 633 1  73.572060 55.810543 44.285801
634 634 1  74.609489 62.826508 49.092880
635 635 1  55.209114 54.734653 25.368790
636 636 1  78.243759 39.662991 35.195309
637 637 1  49.481079 71.588394 55.138317
638 638 1  40.783924 68.069344 44.050423
639 639 1  28.912546 52.962273 59.674572
640 640 1  32.715176 59.373112 48.025764
641 641 1  37.791248 27.456623 49.904079
642 642 1  24.148941 58.177780 41.911102
643 643 1  67.666901 30.321205 55.185692
644 644 1  72.522003 47.482349 59.614296
645 645 1  76.501747 56.473454 50.784866
646 646 1  33.552101 72.615669 59.656265
647 647 1  47.630539 39.004807 33.062725
648 648 1  30.646528 64.098122 55.102024
649 649 1  68.629204 41.700836 36.673546
650 650 1  75.074211 39.962742 32.879364
651 651 1  61.918354 36.004562 50.489021
652 652 1  40.421734 63.427536 66.676933
653 653 1  35.650997 67.882713 53.987503
654 654 1  29.837599 53.792686 55.796875
655 655 1  68.189171 44.410923 40.962929
656 656 1  43.649445 45.532547 28.478388
657 657 1  41.425205 44.014965 24.645567
658 658 1  30.643183 42.751106 39.436089
659 659 1  45.212627 29.982849 36.864735
660 660 1  45.867558 42.910404 38.069130
661 661 1  70.481400 64.938026 53.391743
662 662 1  25.986309 43.585693 36.626499
663 663 1  51.064178 50.433834 25.753485
664 664 1  39.761837 60.975620 42.321896
665 665 1  8.139183 38.045406 34.127392
666 666 1  32.391735 57.246845 69.132347
667 667 1  46.124458 57.054543 36.069927
668 668 1  37.964531 62.361797 74.022331
669 669 1  60.482323 39.360798 34.859577
670 670 1  77.775780 41.330311 47.718994
671 671 1  72.837654 54.598972 66.783005
672 672 1  60.210892 43.399296 46.765575
673 673 1  77.768402 48.682400 43.602859
674 674 1  26.015394 36.507259 40.447292
675 675 1  29.140932 46.276199 52.796509
676 676 1  71.441193 62.626720 41.586460
677 677 1  47.771687 29.504353 57.935131
678 678 1  63.928101 32.818508 38.466030
679 679 1  40.955132 76.616150 41.456757
680 680 1  23.584110 40.386650 46.135700
681 681 1  43.177536 57.590149 48.641453
682 682 1  61.581532 55.074848 57.858986
683 683 1  54.660637 46.667248 60.276474
684 684 1  47.508961 45.500854 26.084394
685 685 1  50.428448 23.721964 70.509888
686 686 1  38.286701 65.115379 36.531452
687 687 1  70.615829 53.224403 35.232719
688 688 1  48.913029 58.656696 45.214405
689 689 1  59.092537 67.650101 61.920788
690 690 1  48.635136 30.015778 65.304733
691 691 1  36.605019 49.535439 38.651356
692 692 1  57.674980 45.538025 22.708067
693 693 1  74.376236 66.386185 34.504063
694 694 1  41.894073 34.527649 71.508026
695 695 1  30.239067 53.145351 41.454483
696 696 1  40.250763 58.689796 47.908966
697 697 1  72.467148 49.404346 34.497589
698 698 1  77.070885 62.907135 42.805313
699 699 1  54.709045 44.877361 56.444668
700 700 1  58.856354 43.323338 51.253265
701 701 1  35.430584 51.019981 61.470352
702 702 1  58.782780 48.012867 56.660572
703 703 1  63.470036 61.805256 44.441437
704 704 1  61.815777 29.940424 41.203537
705 705 1  61.072334 25.221598 58.478756
706 706 1  25.914810 54.691780 55.541668
707 707 1  60.018478 29.421099 46.501270
708 708 1  20.618654 60.632591 55.168827
709 709 1  41.162937 37.833813 27.264181
710 710 1  66.341957 38.046143 51.051872
711 711 1  62.436970 35.395657 61.868122
712 712 1  73.732422 51.391582 58.969433
713 713 1  39.010147 38.512859 65.165070
714 714 1  39.098778 42.356216 52.468872
715 715 1  28.057854 63.276588 52.121254
716 716 1  69.266640 51.512878 30.335733
717 717 1  35.654602 42.344917 53.230461
718 718 1  46.384956 51.626160 26.433544
719 719 1  59.962566 49.148209 40.045143
720 720 1  55.506580 32.836143 31.833010
721 721 1  26.169245 37.321861 60.812008
722 722 1  66.355721 37.786263 64.747787
723 723 1  49.175396 49.305248 71.110481
724 724 1  30.456800 35.641727 48.634300
725 725 1  66.437843 54.712833 47.548653
726 726 1  56.729206 32.809696 35.421024
727 727 1  36.864563 58.455566 59.132763
728 728 1  76.076546 52.258446 44.542301
729 729 1  72.509109 53.759987 71.222755
730 730 1  48.906342 77.335587 54.360252
731 731 1  37.293552 61.610435 49.678173
732 732 1  61.712643 65.363655 37.602280
733 733 1  75.729782 35.164886 34.518860