ITEM: TIMESTEP 
0            
ITEM: NUMBER OF ATOMS 
121        
ITEM: BOX BOUNDS pp pp pp 
0.00000  1000.00000 
0.00000  1000.00000 
0.00000  1000.00000 
ITEM: ATOMS id type x y z      
    1     1    95.0000   225.8935   124.9235 
    2     2    96.1080   223.2175   119.7090 
    3     3    91.2785   219.2100   117.9435 
    4     4    90.7685   213.2155   116.6950 
    5     5    87.5330   209.4295   113.8775 
    6     6    87.2717   203.9843   111.5937 
    7     7    85.8526   195.7772   106.7598 
    8     8    88.3742   187.9395   102.4912 
    9     9    81.2955   190.7470   104.8847 
   10    10    83.3300   196.3409   115.6546 
   11    11    92.9301   199.9917   119.3638 
   12    12   102.4806   204.1409   123.9650 
   13    13   109.7287   207.9085   119.6870 
   14    14   114.0923   207.1263   110.9723 
   15    15   116.3093   210.5547   103.9583 
   16    16   109.5643   211.6103   103.9683 
   17    17   102.7333   215.0803   108.9420 
   18    18   103.2000   213.4025   116.2177 
   19    19   103.6538   206.0174   113.3960 
   20    20   107.2578   198.3657   113.0433 
   21    21   106.1227   192.4917   120.4723 
   22    22   106.0015   184.1648   119.0353 
   23    23   108.3165   182.8210   109.1538 
   24    24   114.0243   187.2983   104.0043 
   25    25   107.2560   190.3910   110.7793 
   26    26   102.5801   198.3170   105.2424 
   27    27    95.3696   196.9216   109.5066 
   28    28    95.4636   191.7640   117.6892 
   29    29    97.0640   187.9050   121.6613 
   30    30    97.6340   190.0073   127.6960 
   31    31   105.6266   191.6734   130.2966 
   32    32   113.9162   193.2610   129.6315 
   33    33   120.6448   190.4145   125.4330 
   34    34   124.1188   184.7372   116.4890 
   35    35   126.4588   179.9478   110.1028 
   36    36   125.9497   171.9699   106.7961 
   37    37   125.5870   171.0735   115.2178 
   38    38   124.1003   176.1533   124.4567 
   39    39   120.7458   182.0472   131.4770 
   40    40   112.0776   182.5893   129.4776 
   41    41   101.3655   180.8418   126.0951 
   42    42    90.2715   175.6760   121.7457 
   43    43    81.0376   170.0143   121.1039 
   44    44    81.6892   160.8156   124.7400 
   45    45    84.2690   152.2583   125.6955 
   46    46    85.5913   146.0623   118.1864 
   47    47    85.2500   156.2299   115.1654 
   48    48    78.0261   163.8669   114.1370 
   49    49    72.0540   170.9108   112.8348 
   50    50    73.2722   169.6735   105.1488 
   51    51    75.2927   167.3820    99.6178 
   52    52    76.2455   166.7715    95.0560 
   53    53    78.4893   162.6003    94.5480 
   54    54    76.3575   155.5910    95.6650 
   55    55    77.1988   154.7848    90.6580 
   56    56    80.5035   154.5595    83.5977 
   57    57    89.3297   155.9510    81.9950 
   58    58    97.8397   158.9415    80.7903 
   59    59   106.0692   164.6283    83.2572 
   60    60   111.2957   164.1320    84.4893 
   61    61   115.1500   161.0760    83.0867 
   62    62   112.0440   152.8617    80.4313 
   63    63   107.8404   146.9570    80.8098 
   64    64   101.8519   150.7314    87.6834 
   65    65    95.0465   156.4775    94.2734 
   66    66    87.0770   154.3483    91.2273 
   67    67    84.6730   147.7580    88.3607 
   68    68    77.3120   144.8940    90.2572 
   69    69    73.1780   143.8415    91.8550 
   70    70    67.9473   140.8030    92.6797 
   71    71    67.6933   133.9353    96.8487 
   72    72    72.2300   132.3600    92.1985 
   73    73    74.7410   133.0110    96.0155 
   74    74    79.3307   133.8240    95.1063 
   75    75    86.2906   141.7018    99.0480 
   76    76    88.6356   152.0512   103.5650 
   77    77    85.1620   165.8474   103.9381 
   78    78    88.1254   168.8333   112.8121 
   79    79    92.5330   159.4064   120.9304 
   80    80    95.0960   152.6322   124.8158 
   81    81    98.0292   146.3464   127.8844 
   82    82    99.4447   143.4485   122.2385 
   83    83    96.7471   144.5999   113.2657 
   84    84    99.0632   146.4670   103.4122 
   85    85   107.6102   137.5652   101.7472 
   86    86   107.1479   148.3728   104.0864 
   87    87   103.8611   158.6884    98.8532 
   88    88    94.5821   166.6686    91.2519 
   89    89   107.7274   157.9497    90.6563 
   90    90   117.6060   148.6172    89.6547 
   91    91   115.3507   144.8845    95.8693 
   92    92   107.6545   141.1595    91.8528 
   93    93   111.2527   138.7343    84.2670 
   94    94   115.9987   138.7043    87.0417 
   95    95   116.7488   134.7265    90.2325 
   96    96   112.9820   134.4340    98.0242 
   97    97   121.3410   140.4632   103.3893 
   98    98   121.6569   150.5526   100.9403 
   99    99   115.3335   164.4235   102.9528 
  100   100   104.5751   165.1576   105.1887 
  101   101   100.5795   173.3483    98.5734 
  102   102   111.4139   171.4797    95.3596 
  103   103   120.3528   166.4333    90.4973 
  104   104   128.8606   168.0499    89.4356 
  105   105   135.8183   170.4390    97.4293 
  106   106   131.3212   178.0741    98.4851 
  107   107   121.1866   178.0084    94.2001 
  108   108   115.1558   180.6612    92.6896 
  109   109   119.8020   184.5200    98.4377 
  110   110   117.7875   178.6994   106.4351 
  111   111   112.0156   173.3843   113.8925 
  112   112   101.5226   172.9376   109.1510 
  113   113    94.3080   176.2528   105.3875 
  114   114    85.5563   178.8777   103.4857 
  115   115    77.5766   178.0560   101.1542 
  116   116    69.9076   178.6304   100.3432 
  117   117    63.0177   177.3697   102.6488 
  118   118    59.6837   175.3377   106.8193 
  119   119    55.6085   174.3835   112.8580 
  120   120    51.1200   176.2765   116.7170 
  121   121    44.9630   175.5960   118.7815 
ITEM: TIMESTEP 
1            
ITEM: NUMBER OF ATOMS 
121        
ITEM: BOX BOUNDS pp pp pp 
0.00000  1000.00000 
0.00000  1000.00000 
0.00000  1000.00000 
ITEM: ATOMS id type x y z      
    1     1    95.2005   230.3095   121.4095 
    2     2    94.2560   223.6600   123.1135 
    3     3    91.5650   219.6710   118.8485 
    4     4    93.7320   214.1545   116.0725 
    5     5    90.3230   210.7640   113.2260 
    6     6    90.1320   205.5130   111.2393 
    7     7    87.3164   197.8380   106.7616 
    8     8    89.3420   188.9352   102.1137 
    9     9    82.5735   192.7775   105.2635 
   10    10    84.5703   199.1711   115.4521 
   11    11    95.5575   200.2864   118.9731 
   12    12   105.5760   203.4769   123.1823 
   13    13   112.9575   206.2538   118.1863 
   14    14   116.7950   203.1853   110.2407 
   15    15   120.4183   204.4100   103.3187 
   16    16   114.2963   207.9133   103.3737 
   17    17   107.5620   212.3167   107.0113 
   18    18   107.8930   211.3855   114.9227 
   19    19   107.0362   204.1598   112.5986 
   20    20   108.5470   196.3903   111.7752 
   21    21   105.6437   190.1627   118.8410 
   22    22   103.8910   182.8003   118.6812 
   23    23   107.5067   182.1330   108.9235 
   24    24   114.8650   187.3357   104.8690 
   25    25   107.8363   189.0952   110.0192 
   26    26   104.2573   197.1640   103.8683 
   27    27    96.8164   196.5356   108.3385 
   28    28    95.3636   191.4304   116.2996 
   29    29    96.3920   186.8157   120.1320 
   30    30    96.7850   188.9623   126.2593 
   31    31   103.4468   189.0234   130.5142 
   32    32   111.8025   188.9738   130.9813 
   33    33   118.6850   187.9350   126.6752 
   34    34   122.0167   184.3945   116.7423 
   35    35   125.7637   178.3752   111.9692 
   36    36   126.4751   170.3643   107.8179 
   37    37   124.5098   168.8280   115.8553 
   38    38   121.5883   171.1803   125.6200 
   39    39   116.9354   178.2802   131.8268 
   40    40   108.2750   178.9921   130.2977 
   41    41    98.2195   179.5699   125.2241 
   42    42    87.4506   176.9848   118.6647 
   43    43    77.7869   170.5174   117.6337 
   44    44    78.0134   162.1936   122.0872 
   45    45    80.4822   154.0125   123.6983 
   46    46    82.9266   147.2639   116.7514 
   47    47    82.9351   156.7750   112.5129 
   48    48    76.6556   164.7296   109.7864 
   49    49    70.8402   171.7545   108.0005 
   50    50    73.1767   170.6330   100.4802 
   51    51    75.8800   168.0690    95.8082 
   52    52    77.2935   166.2415    91.7385 
   53    53    78.6757   161.8867    91.8987 
   54    54    76.3305   155.2350    92.9015 
   55    55    78.1398   153.6990    88.1190 
   56    56    82.1930   153.0857    82.1778 
   57    57    91.4933   153.5037    81.6333 
   58    58   100.2952   156.3798    81.3723 
   59    59   107.5495   161.5122    83.1977 
   60    60   112.4807   160.6133    84.9207 
   61    61   117.1647   158.5717    84.7510 
   62    62   115.3857   150.2257    81.9687 
   63    63   110.2176   144.9096    82.4450 
   64    64   103.3951   148.9314    88.4594 
   65    65    96.0170   155.0349    93.7826 
   66    66    88.3910   151.8610    90.6560 
   67    67    84.5387   145.8053    87.7507 
   68    68    76.6358   144.0892    89.6325 
   69    69    72.0955   142.8625    91.4755 
   70    70    66.3560   140.5237    92.9943 
   71    71    67.3497   133.2537    96.2003 
   72    72    72.2425   132.8245    91.1690 
   73    73    75.0120   131.8105    94.6700 
   74    74    79.2757   133.4040    95.0870 
   75    75    85.7848   141.1684    99.3100 
   76    76    87.5854   152.0248   102.2512 
   77    77    84.9924   165.5739   101.4497 
   78    78    86.8576   169.6441   110.1609 
   79    79    89.4574   161.4214   119.3054 
   80    80    91.1926   155.0994   123.6250 
   81    81    92.2782   148.6820   127.1570 
   82    82    95.2455   144.3983   122.1948 
   83    83    95.2166   146.0886   113.4237 
   84    84    98.6922   146.3066   103.8080 
   85    85   106.9690   136.8224   103.1156 
   86    86   106.8077   147.7234   105.2468 
   87    87   104.1634   157.6981    99.5081 
   88    88    95.9814   164.7477    90.6036 
   89    89   108.6023   155.7246    91.8467 
   90    90   118.1943   146.7828    91.9365 
   91    91   115.4032   143.1772    98.0265 
   92    92   108.2233   139.8138    93.0882 
   93    93   113.5803   137.0087    86.6537 
   94    94   118.2447   137.1640    89.9500 
   95    95   118.0242   133.4245    93.6308 
   96    96   112.3192   134.0202   100.7712 
   97    97   119.7885   139.6962   107.2735 
   98    98   121.0249   148.9716   103.4826 
   99    99   115.2777   162.9890   103.3790 
  100   100   104.1606   164.6979   105.0807 
  101   101   101.3920   171.5637    97.0920 
  102   102   112.9934   169.8609    95.1343 
  103   103   122.0127   165.8525    91.0923 
  104   104   130.9757   168.0303    91.0037 
  105   105   137.5566   170.2786    98.7279 
  106   106   132.5580   177.3570   100.5350 
  107   107   122.8727   176.7836    95.3167 
  108   108   116.8698   179.5570    92.8772 
  109   109   120.9920   183.5975    99.1382 
  110   110   118.0038   177.9023   106.7544 
  111   111   111.5016   172.9443   113.8356 
  112   112   101.4192   173.1008   107.8476 
  113   113    94.1688   176.1545   103.1227 
  114   114    85.7707   178.7855   100.8670 
  115   115    77.9524   178.8702    97.1814 
  116   116    70.7758   180.0742    95.4040 
  117   117    63.5580   178.8770    96.3535 
  118   118    58.9357   175.5913    98.7687 
  119   119    56.9095   171.8390   105.3965 
  120   120    55.7820   165.6000   103.2955 
  121   121    58.7070   160.4945   100.1595 
ITEM: TIMESTEP 
2            
ITEM: NUMBER OF ATOMS 
121        
ITEM: BOX BOUNDS pp pp pp 
0.00000  1000.00000 
0.00000  1000.00000 
0.00000  1000.00000 
ITEM: ATOMS id type x y z      
    1     1   105.2285   217.1330   126.7550 
    2     2    99.6475   219.9930   127.6820 
    3     3    95.9580   215.9255   124.7490 
    4     4    93.0175   212.4870   120.0135 
    5     5    90.2080   210.0490   115.5165 
    6     6    89.2873   204.1253   113.5340 
    7     7    86.3116   196.3342   109.5578 
    8     8    87.8355   187.5090   105.5823 
    9     9    80.9513   191.9472   108.1453 
   10    10    83.5239   198.0610   117.9144 
   11    11    94.3536   198.4056   121.0946 
   12    12   105.2271   200.9333   125.5147 
   13    13   112.1080   205.6963   121.5417 
   14    14   115.9550   204.6253   113.1590 
   15    15   117.2193   206.4253   105.0213 
   16    16   111.3067   208.9273   106.7270 
   17    17   104.7930   212.1330   111.8317 
   18    18   106.5637   210.9205   119.0630 
   19    19   106.0298   203.6004   115.6652 
   20    20   107.9360   195.8200   113.6208 
   21    21   105.1157   189.1563   120.0053 
   22    22   104.2075   181.7947   118.8505 
   23    23   107.1035   182.4042   108.8965 
   24    24   114.2927   187.7867   104.9863 
   25    25   107.5067   188.8680   110.7770 
   26    26   103.7774   197.2206   105.8687 
   27    27    96.0724   196.3934   110.1220 
   28    28    94.8552   189.9380   117.1524 
   29    29    96.0253   185.1050   120.4100 
   30    30    95.4230   186.4933   127.2457 
   31    31   102.0256   186.9934   131.4418 
   32    32   110.4785   188.5417   131.8245 
   33    33   116.8705   187.9603   126.9770 
   34    34   120.4458   185.4970   117.9543 
   35    35   124.6115   179.9845   112.9788 
   36    36   125.5681   172.3853   107.6289 
   37    37   123.4285   169.1657   115.3352 
   38    38   122.0123   171.3537   125.7270 
   39    39   117.6466   178.4090   130.6380 
   40    40   108.5493   178.3566   130.3289 
   41    41    97.8200   177.7665   125.6214 
   42    42    86.7583   174.9105   120.8798 
   43    43    77.3940   168.8894   119.3490 
   44    44    77.6740   159.5476   123.5838 
   45    45    81.2603   151.9000   124.7978 
   46    46    84.4734   146.0023   117.5256 
   47    47    83.2980   155.8021   114.0297 
   48    48    76.0043   163.3737   111.5899 
   49    49    71.0700   171.1917   109.6477 
   50    50    72.4280   170.6592   101.8630 
   51    51    74.8762   168.1570    97.1898 
   52    52    76.6845   166.7130    92.9025 
   53    53    79.2097   162.5587    93.3590 
   54    54    77.3905   155.6325    94.4490 
   55    55    78.6493   154.3610    89.5508 
   56    56    81.5978   153.6205    83.1530 
   57    57    90.3352   154.8535    81.7407 
   58    58    98.7307   157.5728    80.9123 
   59    59   107.5257   162.1517    82.1485 
   60    60   113.0537   161.2733    83.9113 
   61    61   117.6043   158.8347    83.5043 
   62    62   114.8500   151.2990    80.6013 
   63    63   109.6008   146.0528    80.9736 
   64    64   102.8533   149.8360    87.5319 
   65    65    95.5446   155.5011    93.6603 
   66    66    87.9187   153.2740    90.6677 
   67    67    85.5230   146.4407    88.7190 
   68    68    77.8385   144.3742    90.1005 
   69    69    72.8605   144.4050    92.1355 
   70    70    66.5670   143.3183    93.5010 
   71    71    66.0250   136.0803    97.4580 
   72    72    70.5910   134.5200    92.6650 
   73    73    73.9445   133.4640    96.2450 
   74    74    78.4013   134.9217    94.6900 
   75    75    85.6598   141.4540    99.3598 
   76    76    88.5012   151.5838   102.9386 
   77    77    85.1451   165.0037   102.6474 
   78    78    86.3621   168.5891   111.6859 
   79    79    90.0300   159.9782   120.6476 
   80    80    92.1212   153.4004   124.5098 
   81    81    93.4952   146.6960   127.5902 
   82    82    95.6235   143.4005   122.0675 
   83    83    96.0721   144.6969   113.0179 
   84    84    99.0066   145.7410   103.1418 
   85    85   107.2056   136.5604   101.3668 
   86    86   107.0833   147.4060   104.1991 
   87    87   104.3509   157.7511    98.5573 
   88    88    95.7664   165.4151    90.2379 
   89    89   108.5483   156.6639    91.0101 
   90    90   118.4573   147.5378    91.0298 
   91    91   115.2575   143.3937    96.6837 
   92    92   108.1910   140.2845    91.5990 
   93    93   113.6620   138.9007    85.0917 
   94    94   118.6207   138.3093    88.0863 
   95    95   117.5525   133.0613    90.9160 
   96    96   112.9140   133.1604    98.5826 
   97    97   120.6370   138.7013   104.8342 
   98    98   121.3486   148.5713   101.7624 
   99    99   115.2482   163.1055   102.7822 
  100   100   104.6667   164.3503   104.8590 
  101   101   101.2980   172.4754    97.6029 
  102   102   112.4430   170.6024    95.0452 
  103   103   120.9795   166.2010    90.8102 
  104   104   129.2950   169.0674    89.6664 
  105   105   136.8924   171.8087    97.0556 
  106   106   132.2639   178.3165    99.0825 
  107   107   121.9741   178.0864    94.7031 
  108   108   115.6588   180.8070    93.9718 
  109   109   120.1135   184.5415    99.8568 
  110   110   117.7499   178.4255   107.0181 
  111   111   111.9275   172.3543   113.7785 
  112   112   101.4028   171.9564   108.3118 
  113   113    94.1523   175.2318   103.9598 
  114   114    85.6460   178.1742   102.0042 
  115   115    77.8374   178.8296    99.2196 
  116   116    70.7588   180.8578    98.3544 
  117   117    63.7490   180.6882    99.6575 
  118   118    58.5540   177.7107   101.4263 
  119   119    55.6340   171.4025   105.2190 
  120   120    54.0645   169.1370    99.8945 
  121   121    58.3680   167.1720    97.2390 
ITEM: TIMESTEP 
3            
ITEM: NUMBER OF ATOMS 
121        
ITEM: BOX BOUNDS pp pp pp 
0.00000  1000.00000 
0.00000  1000.00000 
0.00000  1000.00000 
ITEM: ATOMS id type x y z      
    1     1   103.0425   227.6355   126.6080 
    2     2    99.9545   221.9630   127.1795 
    3     3    96.7275   217.1240   125.0860 
    4     4    95.6190   211.9070   123.2315 
    5     5    91.6935   208.6295   121.1030 
    6     6    89.7697   204.6293   117.2053 
    7     7    88.3026   196.4518   111.2584 
    8     8    89.4330   189.0488   105.0722 
    9     9    83.1792   191.6277   109.5418 
   10    10    85.7250   196.6847   120.2020 
   11    11    96.7821   198.2233   122.7957 
   12    12   107.2480   200.3203   127.6007 
   13    13   114.5827   204.7312   122.9912 
   14    14   118.3160   206.5797   113.6727 
   15    15   120.3253   212.8130   109.3350 
   16    16   114.0143   213.4160   109.7783 
   17    17   106.7500   213.1463   115.2763 
   18    18   109.1562   210.5308   121.9207 
   19    19   108.5832   204.0610   117.5602 
   20    20   109.9285   196.8893   113.8287 
   21    21   107.6943   190.1293   120.0923 
   22    22   106.7515   182.7738   119.1458 
   23    23   110.5242   181.6743   109.2473 
   24    24   116.6310   188.1073   105.3677 
   25    25   108.2980   190.6655   109.8222 
   26    26   105.0340   200.4090   107.7237 
   27    27    97.5780   198.6146   112.0925 
   28    28    97.0768   190.7164   117.6570 
   29    29    98.6133   185.6997   120.2807 
   30    30    98.0387   186.4390   127.5880 
   31    31   104.0064   185.9476   132.1108 
   32    32   112.2858   187.4307   132.8870 
   33    33   118.7152   186.8762   128.6743 
   34    34   122.5870   182.4875   119.0755 
   35    35   126.7178   177.5825   112.5988 
   36    36   126.7479   169.5259   107.6014 
   37    37   124.8832   168.3132   115.6802 
   38    38   124.5530   170.5450   125.8570 
   39    39   118.9630   177.1186   131.6566 
   40    40   110.5430   177.8037   129.4700 
   41    41   100.4292   178.1504   124.6544 
   42    42    89.6905   176.6384   120.0989 
   43    43    79.0726   171.7791   119.2961 
   44    44    76.2666   161.5308   122.9302 
   45    45    79.0357   153.3688   122.9953 
   46    46    82.6827   148.3330   115.3430 
   47    47    82.5970   158.5184   112.3830 
   48    48    77.0044   167.2254   110.7877 
   49    49    72.7107   174.8398   108.8605 
   50    50    75.5900   173.4647   101.0828 
   51    51    77.7248   170.9030    95.8205 
   52    52    78.2700   170.0705    90.9470 
   53    53    80.4300   165.8783    90.8823 
   54    54    77.5630   158.9610    92.3440 
   55    55    78.2800   156.9255    87.2392 
   56    56    81.8860   156.8167    80.9437 
   57    57    91.0772   156.8127    80.4533 
   58    58    99.8347   159.1883    80.0723 
   59    59   108.0118   163.2568    82.3100 
   60    60   113.3530   162.3603    84.1410 
   61    61   117.9867   159.5890    83.7627 
   62    62   115.0563   151.2970    80.7703 
   63    63   108.7296   146.5976    80.9086 
   64    64   102.7169   150.7409    86.9840 
   65    65    95.7009   157.1985    92.6941 
   66    66    88.3483   155.2943    89.4000 
   67    67    84.8937   148.9190    86.7110 
   68    68    76.8307   146.4500    87.9695 
   69    69    72.2160   145.7000    89.5575 
   70    70    66.3220   143.2990    90.2843 
   71    71    65.6343   135.9920    91.9497 
   72    72    71.2970   136.5660    87.9850 
   73    73    73.3520   135.6605    92.7215 
   74    74    77.9660   136.7473    92.6967 
   75    75    85.0816   143.1024    97.4422 
   76    76    87.6224   153.5876   101.5562 
   77    77    85.9429   167.2787   101.2237 
   78    78    87.6626   171.2170   110.7726 
   79    79    88.0970   162.3502   120.5728 
   80    80    89.8954   155.2604   123.6962 
   81    81    91.5108   148.3746   125.7858 
   82    82    93.9917   144.8890   120.5950 
   83    83    94.5381   145.7146   111.4849 
   84    84    98.3604   146.5388   101.8254 
   85    85   106.9314   136.9106   100.6998 
   86    86   106.4067   147.6388   103.1836 
   87    87   104.2573   158.2493    98.2992 
   88    88    96.4294   167.1247    90.2414 
   89    89   108.6287   156.8591    90.5321 
   90    90   118.0278   147.1863    90.5095 
   91    91   114.7263   142.8470    96.0193 
   92    92   107.2437   140.4080    90.9985 
   93    93   112.4123   138.6150    84.3727 
   94    94   117.2607   137.9970    87.5823 
   95    95   116.6105   133.1523    90.7915 
   96    96   111.4232   133.8074    98.1136 
   97    97   119.6053   138.5157   104.8220 
   98    98   121.1887   147.6923   101.2894 
   99    99   116.0685   162.5398   102.6607 
  100   100   104.9696   164.6749   104.4787 
  101   101   102.5961   173.2269    97.7708 
  102   102   113.4748   170.3131    95.0892 
  103   103   121.7413   164.8290    90.9513 
  104   104   130.6580   165.0783    90.6623 
  105   105   137.9370   166.5884    98.2499 
  106   106   134.1296   174.2442    99.5391 
  107   107   123.9176   175.6613    94.9913 
  108   108   118.0390   179.4276    93.8408 
  109   109   123.3290   182.4183   100.0597 
  110   110   119.4786   176.7145   107.0100 
  111   111   112.4260   171.5740   113.4827 
  112   112   102.3088   172.9032   108.2840 
  113   113    96.1797   177.0555   103.5837 
  114   114    88.5465   181.4055   101.0852 
  115   115    80.8384   181.9512    97.7800 
  116   116    73.3346   182.6128    96.8658 
  117   117    66.2820   180.8453    98.6810 
  118   118    62.4520   177.9017   102.4983 
  119   119    62.7880   175.3915   110.3050 
  120   120    58.7170   171.2480   109.5195 
  121   121    59.5740   167.1285   105.6415 
ITEM: TIMESTEP 
4            
ITEM: NUMBER OF ATOMS 
121        
ITEM: BOX BOUNDS pp pp pp 
0.00000  1000.00000 
0.00000  1000.00000 
0.00000  1000.00000 
ITEM: ATOMS id type x y z      
    1     1    94.5010   218.5705   124.9095 
    2     2    91.9365   214.7515   128.9315 
    3     3    89.4920   211.8745   124.0045 
    4     4    90.1290   210.3340   117.9200 
    5     5    85.9555   208.7515   114.1470 
    6     6    86.7783   202.8843   112.7250 
    7     7    87.2382   194.3344   108.6702 
    8     8    89.4765   186.0970   104.5835 
    9     9    82.5703   189.4983   107.4783 
   10    10    85.4084   195.1359   117.5266 
   11    11    96.3457   196.8048   119.8154 
   12    12   106.9011   199.4679   123.8629 
   13    13   114.3040   202.9588   119.5150 
   14    14   118.8167   200.8073   111.7450 
   15    15   120.2150   200.1667   103.4563 
   16    16   114.2290   202.7867   104.6167 
   17    17   109.0847   209.0773   109.5420 
   18    18   109.0348   208.2660   116.9537 
   19    19   108.1852   200.9116   113.7872 
   20    20   109.2720   192.8062   112.3142 
   21    21   106.5277   188.1397   119.7133 
   22    22   105.4070   181.0005   120.6520 
   23    23   110.8450   179.3628   111.8167 
   24    24   116.0067   187.5010   109.3080 
   25    25   107.9928   186.2572   109.6935 
   26    26   104.9717   195.0440   104.7333 
   27    27    97.3238   194.6850   108.7274 
   28    28    96.2930   188.3528   115.9178 
   29    29    97.4053   183.6473   119.2497 
   30    30    95.1723   185.6090   126.4410 
   31    31   100.3956   185.6788   132.0922 
   32    32   108.7198   187.1308   133.3182 
   33    33   117.3085   186.7210   131.3155 
   34    34   123.0005   182.8660   122.0125 
   35    35   127.1117   176.0438   117.7410 
   36    36   126.4707   167.9314   113.7849 
   37    37   123.3548   167.3978   121.4872 
   38    38   119.3453   169.3293   130.0690 
   39    39   114.9670   177.0558   135.8472 
   40    40   108.1024   178.0421   132.2131 
   41    41    98.3868   177.2536   125.6449 
   42    42    87.7178   175.3399   119.1284 
   43    43    78.6747   170.8890   115.8024 
   44    44    76.5694   161.4420   119.7012 
   45    45    77.5605   152.7562   120.3490 
   46    46    81.3804   146.5620   113.5771 
   47    47    81.7699   156.6554   110.4126 
   48    48    76.8700   165.9093   107.6160 
   49    49    73.1645   174.2940   105.0715 
   50    50    75.8750   172.9178    97.6245 
   51    51    78.7202   170.0555    92.9337 
   52    52    80.0970   168.7945    88.4645 
   53    53    81.5357   164.5630    89.1310 
   54    54    78.2735   158.4095    90.8790 
   55    55    81.2862   156.4143    85.9640 
   56    56    86.0638   156.3617    80.1910 
   57    57    94.7128   156.3795    80.7030 
   58    58   103.4578   158.1790    81.6440 
   59    59   110.8907   161.3905    84.2400 
   60    60   115.5313   160.9527    87.0047 
   61    61   119.4653   157.7940    86.9767 
   62    62   116.7250   150.1747    82.7880 
   63    63   111.0280   145.2014    82.4766 
   64    64   104.7043   149.4966    88.0040 
   65    65    97.4218   156.0909    93.3410 
   66    66    90.6407   154.5457    88.8073 
   67    67    88.0303   148.0767    85.6257 
   68    68    79.1712   147.5675    86.6785 
   69    69    75.3935   146.0520    89.4225 
   70    70    69.3817   143.8747    90.1413 
   71    71    67.2733   136.2563    88.6853 
   72    72    73.1895   135.7905    85.7940 
   73    73    75.0905   134.0145    90.2300 
   74    74    79.5993   135.7880    90.8590 
   75    75    85.6160   142.8808    96.6128 
   76    76    87.1304   153.3324    99.8800 
   77    77    86.8129   166.3107    99.6337 
   78    78    87.5286   169.2656   109.5277 
   79    79    87.8784   160.1110   118.6834 
   80    80    88.4254   153.0048   122.4356 
   81    81    88.5948   146.0100   125.4418 
   82    82    91.2320   142.7465   121.2163 
   83    83    93.3979   144.8440   112.3859 
   84    84    98.1204   145.6776   103.0498 
   85    85   105.9554   135.8736   102.6590 
   86    86   106.0216   146.3796   105.4222 
   87    87   104.9893   157.0910    99.8646 
   88    88    99.1690   166.3164    90.6701 
   89    89   110.2684   155.8656    93.2243 
   90    90   118.8232   145.5747    94.3075 
   91    91   114.8937   141.8865    99.3792 
   92    92   108.1053   139.9897    93.0475 
   93    93   112.8967   136.8703    86.5130 
   94    94   117.1340   135.7930    89.9743 
   95    95   117.0318   132.2740    93.7527 
   96    96   110.9056   132.2798   100.8142 
   97    97   117.7042   136.7912   109.2790 
   98    98   120.6546   145.8794   106.1243 
   99    99   115.8448   160.0908   106.4723 
  100   100   105.3696   163.0733   106.3611 
  101   101   103.9981   171.9518    98.9386 
  102   102   115.2280   168.5535    99.0490 
  103   103   124.2533   162.9000    96.5650 
  104   104   133.3147   163.5076    97.5587 
  105   105   139.1316   165.3314   106.4390 
  106   106   134.7949   172.9392   106.6705 
  107   107   125.7140   173.9333   100.2203 
  108   108   120.5924   177.5824    97.7924 
  109   109   125.0945   180.3990   104.7968 
  110   110   119.8304   174.7329   111.7103 
  111   111   111.5761   169.7799   116.6706 
  112   112   101.7184   171.6658   109.3984 
  113   113    96.3407   175.7655   103.6060 
  114   114    88.8635   179.7213   100.0855 
  115   115    82.0332   180.5238    95.2128 
  116   116    75.1302   182.0740    92.2292 
  117   117    67.5990   181.4325    91.9822 
  118   118    61.7153   180.7217    95.0473 
  119   119    57.9085   181.8170   102.3005 
  120   120    57.5325   175.7560   103.4120 
  121   121    62.6310   173.2940   101.0370 
ITEM: TIMESTEP 
5            
ITEM: NUMBER OF ATOMS 
121        
ITEM: BOX BOUNDS pp pp pp 
0.00000  1000.00000 
0.00000  1000.00000 
0.00000  1000.00000 
ITEM: ATOMS id type x y z      
    1     1    69.0005   226.6605   113.5425 
    2     2    70.7560   220.9855   116.0085 
    3     3    73.5855   215.1740   114.6415 
    4     4    79.5020   211.8945   114.1195 
    5     5    79.2410   206.7365   111.2625 
    6     6    82.0657   201.9317   111.1887 
    7     7    83.1830   193.6184   109.5874 
    8     8    86.2202   185.6445   106.2570 
    9     9    79.1172   188.0118   110.0343 
   10    10    81.9627   196.1181   118.2553 
   11    11    93.0385   198.8541   118.9205 
   12    12   104.0240   202.4166   121.4081 
   13    13   109.8630   206.8483   115.9672 
   14    14   113.6290   204.5190   107.7920 
   15    15   115.1037   206.9867   100.1110 
   16    16   108.9447   206.6337   100.4410 
   17    17   102.4033   210.0150   105.3813 
   18    18   103.7412   210.7100   112.7087 
   19    19   103.5698   203.4160   110.7796 
   20    20   105.6323   195.9325   109.0062 
   21    21   105.3887   191.1073   116.8447 
   22    22   105.9988   184.3152   118.4165 