LAMMPS data file via write_data, version 7 Aug 2019, timestep = 5000000

11000 atoms
2 atom types
10450 bonds
2 bond types
19800 angles
3 angle types
28050 dihedrals
5 dihedral types

1.6317971398784017e+01 8.3682028601197686e+01 xlo xhi
1.4379973998889003e+01 7.5620026001103270e+01 ylo yhi
4.6899869994445016e+00 3.5310013000551635e+01 zlo zhi

Masses

1 12.01
2 1.008

Pair Coeffs # lj/cut/coul/long

1 0.1094 3.39967
2 0.0157 2.64953

Bond Coeffs # harmonic

1 303.1 1.535
2 337.3 1.092

Angle Coeffs # harmonic

1 63.21 110.63
2 46.37 110.05
3 39.43 108.35

Dihedral Coeffs # harmonic

1 0.2 -1 1
2 0.25 -1 2
3 0.18 1 3
4 0.16 1 3
5 0.15 1 3

Atoms # full

6573 329 2 3.8600000000000002e-02 1.8231820079636748e+01 1.7338842330747518e+01 5.1234472359032699e+00 4 4 1
6897 345 2 3.8600000000000002e-02 1.8214302419678472e+01 1.9759945143148819e+01 5.0547525263865616e+00 1 0 4
10457 523 2 3.8600000000000002e-02 1.7279274910107883e+01 1.6164045572340594e+01 1.3561259425475118e+01 -2 -1 9
6890 345 2 3.8600000000000002e-02 1.9894330363666725e+01 2.0252501492533668e+01 9.1119198074162604e+00 1 0 4
6575 329 2 3.8600000000000002e-02 1.9340104303538357e+01 1.4816888673508442e+01 6.5594953683103698e+00 4 4 1
10399 520 2 3.2599999999999997e-02 2.1530066643156136e+01 2.1140839454097264e+01 1.2869472325347013e+01 1 -1 1
10455 523 2 3.8600000000000002e-02 1.8035080459189416e+01 1.6530646424452978e+01 1.0638088025900654e+01 -2 -1 9
6566 329 1 -9.2200000000000004e-02 2.0479484910007020e+01 1.6691101643735653e+01 8.5589436162178458e+00 4 4 1
10386 520 1 -9.2200000000000004e-02 2.0885737618666830e+01 2.0559985971439538e+01 1.3504171381049197e+01 1 -1 1
1039 52 2 3.2599999999999997e-02 2.2800748248284901e+01 1.9535075786646932e+01 8.7272377644836254e+00 1 5 0
10445 523 1 -8.0500000000000002e-02 1.8029456449094457e+01 1.6415388172942933e+01 1.2780016134368305e+01 -2 -1 9
10459 523 2 3.2599999999999997e-02 1.9871359992860320e+01 1.7594914892033536e+01 1.2200241388645171e+01 -2 -1 9
6580 329 2 3.2599999999999997e-02 2.0792693166365929e+01 1.5688971813085365e+01 8.7728180211838520e+00 4 4 1
10385 520 1 -8.0500000000000002e-02 2.0406059336220469e+01 2.1412260604963848e+01 1.4737884432545048e+01 1 -1 1
6887 345 2 3.2599999999999997e-02 1.9318637315623473e+01 2.1812079397092614e+01 1.0875683869198799e+01 1 0 4
6882 345 1 -8.0500000000000002e-02 1.9576894403001180e+01 2.1220105210395761e+01 8.7669876421407889e+00 1 0 4
6889 345 2 3.2599999999999997e-02 1.7873701466354387e+01 2.1072152201714221e+01 1.0075538429272363e+01 1 0 4
6894 345 2 3.8600000000000002e-02 2.0370450887172705e+01 2.0427594317415640e+01 6.2303893069816461e+00 1 0 4
6893 345 2 3.8600000000000002e-02 1.8160352664712811e+01 2.0106505668172584e+01 7.5213732421849837e+00 1 0 4
6565 329 1 -8.0500000000000002e-02 1.9196732608826906e+01 1.6614262798821198e+01 7.7050072007536210e+00 4 4 1
9634 482 2 3.8600000000000002e-02 2.1089798443958912e+01 1.4402765669231243e+01 1.3606346114822699e+01 2 1 -4
3895 195 2 3.8600000000000002e-02 2.0560541647860859e+01 2.6770120504187428e+01 4.8372523449506506e+00 -2 1 -1
6577 329 2 3.8600000000000002e-02 1.8851768347171966e+01 1.7615100393736260e+01 7.4715214103520831e+00 4 4 1
6730 337 2 3.8600000000000002e-02 2.0884305669539945e+01 2.8431978114023593e+01 1.2103803620942122e+01 -1 1 2
10394 520 2 3.8600000000000002e-02 1.8471434528727656e+01 2.0419154983292902e+01 1.4842436454042794e+01 1 -1 1
6563 329 1 -7.9500000000000001e-02 1.8284511981829745e+01 1.6286199286750929e+01 5.1887242329165382e+00 4 4 1
6884 345 1 -7.9500000000000001e-02 1.9482018420051457e+01 2.1130074044834757e+01 6.1933789139763959e+00 1 0 4
10400 520 2 3.2599999999999997e-02 2.0045593644985413e+01 2.0298918196466413e+01 1.2891002944049630e+01 1 -1 1
9637 482 2 3.8600000000000002e-02 2.2318041039152881e+01 1.6048277031034043e+01 1.2281186516248784e+01 2 1 -4
10454 523 2 3.8600000000000002e-02 1.7022496352519710e+01 1.7658117779378685e+01 1.1407503071467726e+01 -2 -1 9
3887 195 2 3.2599999999999997e-02 2.2286129053939938e+01 2.3166722016217374e+01 7.6721186586998433e+00 -2 1 -1
2920 146 2 3.2599999999999997e-02 2.1687375182784905e+01 2.8817282954560653e+01 7.2625271749661371e+00 2 0 -2
6875 344 2 3.8600000000000002e-02 2.4348386030751278e+01 2.1115834999762672e+01 1.2181467786248330e+01 0 0 3
6877 344 2 3.8600000000000002e-02 2.3918332209047232e+01 1.8509989737129477e+01 1.2308618844534129e+01 0 0 3
6728 337 2 3.2599999999999997e-02 1.9573581767400093e+01 2.8934921276855714e+01 1.4390694829987805e+01 -1 1 2
3892 195 2 3.8600000000000002e-02 2.1098906998948486e+01 2.6013402492595702e+01 7.1905308105872381e+00 -2 1 -1
2918 146 2 3.2599999999999997e-02 2.3241989914823126e+01 2.9409337250796998e+01 6.7796100293797199e+00 2 0 -2
9630 482 2 3.8600000000000002e-02 2.2578912124046777e+01 1.7054285856471427e+01 1.4505998586341804e+01 2 1 -4
6876 344 2 3.8600000000000002e-02 2.4567696364352145e+01 1.9213899206940489e+01 1.0905497354214724e+01 0 0 3
6576 329 2 3.8600000000000002e-02 1.8328665710460161e+01 1.6107464722281783e+01 8.1368479302105499e+00 4 4 1
6578 329 2 3.2599999999999997e-02 2.0434579519398028e+01 1.7264526126051827e+01 9.5235831449982733e+00 4 4 1
9638 482 2 3.2599999999999997e-02 2.2707486208364202e+01 1.4704608061319806e+01 1.0041696792958371e+01 2 1 -4
10397 520 2 3.8600000000000002e-02 1.9951314868637272e+01 2.2312432554143761e+01 1.4333200103555120e+01 1 -1 1
10460 523 2 3.2599999999999997e-02 1.9439365245252489e+01 1.7437548676606273e+01 1.3995822223385625e+01 -2 -1 9
9633 482 2 3.8600000000000002e-02 2.3925519684386920e+01 1.4962462432975673e+01 1.4807054779270718e+01 2 1 -4
10398 520 2 3.2599999999999997e-02 2.1426642906075763e+01 1.9684405563590229e+01 1.3824236978693060e+01 1 -1 1
6872 344 2 3.8600000000000002e-02 2.3806597757294220e+01 1.9766365395860774e+01 1.4257393657731884e+01 0 0 3
6579 329 2 3.2599999999999997e-02 2.1248391200219281e+01 1.7166232320764593e+01 7.9682704216813152e+00 4 4 1
1034 52 2 3.8600000000000002e-02 2.4185416282904626e+01 1.7615827621126989e+01 8.2657363048502503e+00 1 5 0
6721 337 1 -9.2200000000000004e-02 1.9906733710815647e+01 2.9635245423841617e+01 1.3632773228923236e+01 -1 1 2
3891 195 2 3.8600000000000002e-02 2.2886365730733502e+01 2.5406527575521388e+01 5.7653643757820410e+00 -2 1 -1
10456 523 2 3.8600000000000002e-02 1.8568419602415695e+01 1.5430462838650319e+01 1.2678656280975066e+01 -2 -1 9
10444 523 1 -7.9500000000000001e-02 1.7372248649138491e+01 1.6634335005411366e+01 1.1460715406641437e+01 -2 -1 9
8438 422 2 3.2599999999999997e-02 1.7034190546947592e+01 2.3358797722454192e+01 1.2367593253143140e+01 0 1 1
2919 146 2 3.2599999999999997e-02 2.2330668108599699e+01 2.8564609433418894e+01 5.5412164713369041e+00 2 0 -2
9623 482 1 -7.9500000000000001e-02 2.2830123674512770e+01 1.4879601029204879e+01 1.4801557923210561e+01 2 1 -4
3882 195 1 -8.0500000000000002e-02 2.2294211325750048e+01 2.4622857820315492e+01 6.1277431164007998e+00 -2 1 -1
8421 422 1 -9.2200000000000004e-02 2.2830037260096567e+01 2.4914016463175702e+01 1.4680459760061447e+01 0 1 1
2906 146 1 -9.2200000000000004e-02 2.2230839236279980e+01 2.9240364016207852e+01 6.4045882462948889e+00 2 0 -2
9625 482 1 -8.0500000000000002e-02 2.2718969098057880e+01 1.5053579183243960e+01 1.2287391799438709e+01 2 1 -4
1038 52 2 3.2599999999999997e-02 2.3517147309625685e+01 2.1170961091219016e+01 8.8434233245461016e+00 1 5 0
1040 52 2 3.2599999999999997e-02 2.2854639318215732e+01 2.0618304675642147e+01 7.2876192365844910e+00 1 5 0
2908 146 2 3.2599999999999997e-02 1.6755518407627552e+01 2.8926685758566915e+01 7.0289588725782473e+00 2 0 -2
1026 52 1 -9.2200000000000004e-02 2.3421735828661916e+01 2.0296085782757132e+01 8.1660053460498219e+00 1 5 0
9636 482 2 3.8600000000000002e-02 2.3760508473699407e+01 1.5230114675415500e+01 1.2398639489040841e+01 2 1 -4
1035 52 2 3.8600000000000002e-02 2.4131103936789554e+01 1.8054155282859195e+01 6.6093231967182353e+00 1 5 0
8436 422 2 3.8600000000000002e-02 1.7769041789863550e+01 2.5927277473803748e+01 1.2886510296938146e+01 0 1 1
6574 329 2 3.8600000000000002e-02 2.0367465441096680e+01 1.6090135204165403e+01 5.9450876936946493e+00 4 4 1
8439 422 2 3.2599999999999997e-02 1.8185049599669579e+01 2.3057380835113872e+01 1.3542104539469873e+01 0 1 1
6885 345 1 -8.0500000000000002e-02 1.8502491307994649e+01 2.0871063503143631e+01 4.9927898212322885e+00 1 0 4
6881 345 1 -9.2200000000000004e-02 1.8774227142910838e+01 2.1775433995910639e+01 9.9660161895355657e+00 1 0 4
6883 345 1 -7.9500000000000001e-02 1.8688474463197540e+01 2.1061726749393451e+01 7.4789564670749318e+00 1 0 4
6891 345 2 3.8600000000000002e-02 2.0410893962558379e+01 2.1820416534689592e+01 8.4940077889709684e+00 1 0 4
2912 146 2 3.8600000000000002e-02 1.9276538441267796e+01 2.9245735970797845e+01 6.7195120068524901e+00 2 0 -2
3893 195 2 3.8600000000000002e-02 2.0363901107882199e+01 2.4336331990271287e+01 7.0185439035268047e+00 -2 1 -1
6895 345 2 3.8600000000000002e-02 1.9862882945650835e+01 2.2138943270561011e+01 6.0973834131824507e+00 1 0 4
8426 422 1 -9.2200000000000004e-02 1.7957533577611393e+01 2.3812836463380034e+01 1.2782877032857870e+01 0 1 1
10446 523 1 -9.2200000000000004e-02 1.9043700345064824e+01 1.7550752541859822e+01 1.3011064424638128e+01 -2 -1 9
6896 345 2 3.8600000000000002e-02 1.7561275714988199e+01 2.1444415369058291e+01 5.1123652596983433e+00 1 0 4
10458 523 2 3.2599999999999997e-02 1.8556063286513915e+01 1.8500919807375936e+01 1.2975879551269182e+01 -2 -1 9
3888 195 2 3.2599999999999997e-02 2.3842468924475536e+01 2.3568645735944727e+01 7.1951450211487673e+00 -2 1 -1
3883 195 1 -7.9500000000000001e-02 2.0877233019716432e+01 2.5181381832068809e+01 6.4845538942670062e+00 -2 1 -1
3889 195 2 3.2599999999999997e-02 2.3080883153273472e+01 2.4757669901230031e+01 8.2384241797674989e+00 -2 1 -1
6731 337 2 3.8600000000000002e-02 2.1769644476426357e+01 2.8591323387032208e+01 1.3730051152759415e+01 -1 1 2
8427 422 2 3.2599999999999997e-02 2.2940931196869926e+01 2.5836392333944286e+01 1.4135109191717737e+01 0 1 1
8432 422 2 3.8600000000000002e-02 2.0484354845618554e+01 2.4613697654974580e+01 1.3295035621866184e+01 0 1 1
6572 329 2 3.8600000000000002e-02 1.7320327764829010e+01 1.5970164939999689e+01 5.5063109443364819e+00 4 4 1
8440 422 2 3.2599999999999997e-02 1.8754389289436446e+01 2.3914484725982813e+01 1.1972117375557277e+01 0 1 1
3881 195 1 -9.2200000000000004e-02 2.2924722510757007e+01 2.4039550926519134e+01 7.4061204791997586e+00 -2 1 -1
3884 195 1 -7.9500000000000001e-02 2.0071062665465270e+01 2.5867057550090792e+01 5.3352734902315149e+00 -2 1 -1
6564 329 1 -7.9500000000000001e-02 1.9372372581063679e+01 1.5923003087493083e+01 6.3049480938043683e+00 4 4 1
6722 337 1 -8.0500000000000002e-02 2.1184691390208680e+01 2.9092480747604704e+01 1.3002055245091231e+01 -1 1 2
8423 422 1 -7.9500000000000001e-02 2.0348198197187926e+01 2.5364025425762090e+01 1.4120610084366424e+01 0 1 1
8429 422 2 3.2599999999999997e-02 2.2942668496263217e+01 2.4056994275939452e+01 1.3977288002189503e+01 0 1 1
3896 195 2 3.8600000000000002e-02 1.8748634647672901e+01 2.7041700350620282e+01 6.5256886426277312e+00 -2 1 -1
8433 422 2 3.8600000000000002e-02 2.0608715419756507e+01 2.6359745730122327e+01 1.3810465661825992e+01 0 1 1
6888 345 2 3.2599999999999997e-02 1.8444364428712237e+01 2.2791960441125489e+01 9.8400916716279578e+00 1 0 4
8437 422 2 3.8600000000000002e-02 1.6792553140446945e+01 2.5233741693487620e+01 1.4028745443944446e+01 0 1 1
8425 422 1 -8.0500000000000002e-02 1.7786948283128694e+01 2.5134997967636174e+01 1.3610829659155069e+01 0 1 1
8424 422 1 -7.9500000000000001e-02 1.8850416271114174e+01 2.5410605935379998e+01 1.4727137587315005e+01 0 1 1
6871 344 2 3.8600000000000002e-02 2.4074518512774759e+01 2.2440733721749222e+01 1.4704788466024546e+01 0 0 3
10452 523 2 3.8600000000000002e-02 1.6482782800608462e+01 1.4686952450657518e+01 1.1339303628288521e+01 -2 -1 9
6892 345 2 3.8600000000000002e-02 1.7952558019724371e+01 2.1921230511512157e+01 7.4827653878820639e+00 1 0 4
3890 195 2 3.8600000000000002e-02 2.2159736232786610e+01 2.3868727195244514e+01 5.3465057535308249e+00 -2 1 -1
3885 195 1 -8.0500000000000002e-02 1.8639285031234614e+01 2.6267971798350242e+01 5.7628324463920242e+00 -2 1 -1
3897 195 2 3.8600000000000002e-02 1.7941374792829993e+01 2.5446216587329342e+01 6.0068172662402564e+00 -2 1 -1
8758 438 2 3.2599999999999997e-02 2.1043324190337078e+01 1.6571405393621564e+01 1.9165844541160020e+01 1 -2 4
6962 349 1 -8.0500000000000002e-02 2.1297080408176949e+01 1.8881943352378954e+01 2.2811685169453476e+01 0 0 4
6973 349 2 3.8600000000000002e-02 1.9841057982151895e+01 2.0196712084859989e+01 2.2076230384958500e+01 0 0 4
8746 438 1 -9.2200000000000004e-02 2.0247025303930414e+01 1.6208161966818498e+01 1.8538107733690584e+01 1 -2 4
6971 349 2 3.8600000000000002e-02 2.2408361244049686e+01 1.8795816365608246e+01 2.2618350496364116e+01 0 0 4
8759 438 2 3.2599999999999997e-02 1.9802751548984919e+01 1.6983342212961265e+01 1.7956387825092499e+01 1 -2 4
8745 438 1 -8.0500000000000002e-02 1.9292820754943349e+01 1.5328323273796826e+01 1.9372487066283238e+01 1 -2 4
8755 438 2 3.8600000000000002e-02 1.9747471864228711e+01 1.6165060246358795e+01 2.1332448317460692e+01 1 -2 4
10384 520 1 -7.9500000000000001e-02 1.9262751244080444e+01 2.0702262652253072e+01 1.5524833283827407e+01 1 -1 1
8741 438 1 -9.2200000000000004e-02 1.7222217194209112e+01 1.9468970435295795e+01 2.1570780591858441e+01 1 -2 4
8743 438 1 -7.9500000000000001e-02 1.8066667386242997e+01 1.7319098919479135e+01 2.0459227325055306e+01 1 -2 4
9622 482 1 -8.0500000000000002e-02 2.2327423740290442e+01 1.6291340303390463e+01 1.5244845374816416e+01 2 1 -4
9627 482 2 3.2599999999999997e-02 2.2606692341393614e+01 1.7713255016576603e+01 1.6641330134568793e+01 2 1 -4
8752 438 2 3.8600000000000002e-02 1.8513525292846769e+01 1.7930950226240334e+01 1.9713820448459703e+01 1 -2 4
6968 349 2 3.2599999999999997e-02 1.9892597072516480e+01 1.8828844290754255e+01 2.4529587693053529e+01 0 0 4
10395 520 2 3.8600000000000002e-02 1.9535822855730522e+01 1.9801626586681650e+01 1.6039821929789401e+01 1 -1 1
6970 349 2 3.8600000000000002e-02 2.0780761082498376e+01 1.8164598295008744e+01 2.2260681341140952e+01 0 0 4
8750 438 2 3.8600000000000002e-02 1.6886303745464421e+01 1.7528388562957101e+01 2.2210139832301664e+01 1 -2 4
6961 349 1 -9.2200000000000004e-02 2.0958446708683315e+01 1.8619593875400746e+01 2.4275361840804315e+01 0 0 4
9628 482 2 3.2599999999999997e-02 2.2912061260885739e+01 1.6214751467238695e+01 1.7411999296817324e+01 2 1 -4
6977 349 2 3.8600000000000002e-02 2.1617495337969959e+01 1.8683347790995903e+01 2.0048090028294141e+01 0 0 4
6193 310 2 3.8600000000000002e-02 2.4128597339028843e+01 2.6258347404611236e+01 2.1834086525188649e+01 1 3 -2
6965 349 1 -8.0500000000000002e-02 2.1387367063662442e+01 1.9702281031906498e+01 1.9794428657807977e+01 0 0 4
8753 438 2 3.8600000000000002e-02 1.7107997885706716e+01 1.6999910461864289e+01 2.0065189787756513e+01 1 -2 4
6976 349 2 3.8600000000000002e-02 2.0300653665263745e+01 1.9748072971446721e+01 1.9530326517720795e+01 0 0 4
6964 349 1 -7.9500000000000001e-02 2.1654719778736890e+01 2.0621799251712261e+01 2.1003399242472547e+01 0 0 4
6963 349 1 -7.9500000000000001e-02 2.0872194357756161e+01 2.0293389019512823e+01 2.2315668636908917e+01 0 0 4
6974 349 2 3.8600000000000002e-02 2.2757316389087183e+01 2.0646441471975013e+01 2.1149626265042610e+01 0 0 4
10396 520 2 3.8600000000000002e-02 2.1278034004430836e+01 2.1698291738378224e+01 1.5329352528214002e+01 1 -1 1
6966 349 1 -9.2200000000000004e-02 2.2126612219232822e+01 2.0034372271210778e+01 1.8552020169500921e+01 0 0 4
4699 235 2 3.2599999999999997e-02 2.1936853829641564e+01 1.5250901073618243e+01 2.3048830269182773e+01 1 0 -5
6978 349 2 3.2599999999999997e-02 2.3154708993580517e+01 1.9918069282405636e+01 1.8680829532142045e+01 0 0 4
6196 310 2 3.8600000000000002e-02 2.1892418652285027e+01 2.5965698220810530e+01 2.0110512878254557e+01 1 3 -2
8760 438 2 3.2599999999999997e-02 2.0695287982916412e+01 1.5483358994435788e+01 1.7796090596222498e+01 1 -2 4
9629 482 2 3.2599999999999997e-02 2.4106931034742548e+01 1.7009389159739872e+01 1.6267857073098128e+01 2 1 -4
6979 349 2 3.2599999999999997e-02 2.1912173979287761e+01 2.1041669485651123e+01 1.8399294340293302e+01 0 0 4
6980 349 2 3.2599999999999997e-02 2.1829813191107661e+01 1.9463364948794467e+01 1.7685522946033824e+01 0 0 4
8744 438 1 -7.9500000000000001e-02 1.8893652637860715e+01 1.5970594369665651e+01 2.0715209248031087e+01 1 -2 4
10391 520 2 3.8600000000000002e-02 1.8104409839374284e+01 2.0140784880912534e+01 1.8022101586183201e+01 1 -1 1
10807 541 2 3.2599999999999997e-02 1.6444392517602783e+01 1.5984096145874178e+01 1.6714402220269648e+01 -1 2 -1
9631 482 2 3.8600000000000002e-02 2.1250423060167673e+01 1.6318752347511513e+01 1.5357956168785810e+01 2 1 -4
10390 520 2 3.8600000000000002e-02 1.6756520277276973e+01 2.0658599100659416e+01 1.7093994558243214e+01 1 -1 1
6975 349 2 3.8600000000000002e-02 2.1445751799412726e+01 2.1616049241534899e+01 2.0767249337250430e+01 0 0 4
2612 131 2 3.8600000000000002e-02 2.4032445028198950e+01 1.6310582819552177e+01 2.3507720426246738e+01 -1 0 2
6969 349 2 3.2599999999999997e-02 2.1186239376302940e+01 1.7601404939956858e+01 2.4461299331886092e+01 0 0 4
9621 482 1 -9.2200000000000004e-02 2.3084025267194118e+01 1.6763351969392151e+01 1.6467062452788500e+01 2 1 -4
2620 131 2 3.2599999999999997e-02 2.3506961899767944e+01 1.6785527442011002e+01 2.1090540839655809e+01 -1 0 2
8751 438 2 3.8600000000000002e-02 1.8479855269737254e+01 1.8029260131120878e+01 2.2477957696467747e+01 1 -2 4
1101 56 1 -9.2200000000000004e-02 2.4044201877931041e+01 2.8793010107838686e+01 1.7058657953204886e+01 -1 1 1
8754 438 2 3.8600000000000002e-02 1.8244114277438189e+01 1.5430877092577187e+01 2.1373285097485599e+01 1 -2 4
8742 438 1 -8.0500000000000002e-02 1.7718484691178304e+01 1.8026950781599997e+01 2.1741444418992270e+01 1 -2 4
1818 91 2 3.2599999999999997e-02 1.9253027282349194e+01 2.3213051437666653e+01 2.2130816055439080e+01 0 2 -3
4357 218 2 3.8600000000000002e-02 2.0773947810411318e+01 2.9614724290220384e+01 2.1302327448475168e+01 1 -1 -1
8431 422 2 3.8600000000000002e-02 2.1084960010347853e+01 2.4004543310243388e+01 1.5738694205054822e+01 0 1 1
1110 56 2 3.8600000000000002e-02 2.2857138749846147e+01 2.9162482560139161e+01 1.8749306487927996e+01 -1 1 1
2606 131 1 -9.2200000000000004e-02 2.4375512399846667e+01 1.7238717127950817e+01 2.0576414557533752e+01 -1 0 2
2619 131 2 3.2599999999999997e-02 2.4110054860876023e+01 1.8260504112405542e+01 2.0263226606006672e+01 -1 0 2
2618 131 2 3.2599999999999997e-02 2.4570123779814036e+01 1.6638232504043472e+01 1.9609682335227269e+01 -1 0 2
6191 310 2 3.8600000000000002e-02 2.4305409536265415e+01 2.3859529363067409e+01 2.3417292815812502e+01 1 3 -2
8747 438 2 3.2599999999999997e-02 1.7036218211776756e+01 2.0062281289314594e+01 2.2492616408143665e+01 1 -2 4
7326 367 1 -9.2200000000000004e-02 1.7612207773336202e+01 2.6919330794447113e+01 1.8595615861425564e+01 1 -1 1
6186 310 1 -9.2200000000000004e-02 2.3162458349044687e+01 2.4667911754485694e+01 1.8938804732395198e+01 1 3 -2
7338 367 2 3.2599999999999997e-02 1.8361594651682207e+01 2.7598860049144122e+01 1.8176411307667536e+01 1 -1 1
1803 91 1 -7.9500000000000001e-02 1.7852707146542787e+01 2.7194789516608697e+01 2.4253109457124829e+01 0 2 -3
8756 438 2 3.8600000000000002e-02 1.8306521066178465e+01 1.5067934994419709e+01 1.8906194993712315e+01 1 -2 4
8748 438 2 3.2599999999999997e-02 1.7922742016314867e+01 2.0128106945075448e+01 2.0991325176945708e+01 1 -2 4
7340 367 2 3.2599999999999997e-02 1.7751905862198647e+01 2.6973385670406749e+01 1.9648806651521841e+01 1 -1 1
1102 56 1 -8.0500000000000002e-02 2.3910444535430813e+01 2.9390050027902475e+01 1.8448199247196793e+01 -1 1 1
10383 520 1 -7.9500000000000001e-02 1.8603832613477469e+01 2.1646482755416674e+01 1.6556412730310193e+01 1 -1 1
6195 310 2 3.8600000000000002e-02 2.3084354671749576e+01 2.3343977569390251e+01 2.1474790928951990e+01 1 3 -2
10393 520 2 3.8600000000000002e-02 1.8095870800934986e+01 2.2468427640442613e+01 1.5955482329528397e+01 1 -1 1
10392 520 2 3.8600000000000002e-02 1.9474876784594727e+01 2.2105987097521218e+01 1.7041044193018784e+01 1 -1 1
1817 91 2 3.8600000000000002e-02 1.9672696642341521e+01 2.5517529232482691e+01 2.3191054185361001e+01 0 2 -3
1820 91 2 3.2599999999999997e-02 1.7441053547953057e+01 2.3443220874848237e+01 2.2269204383749418e+01 0 2 -3
6972 349 2 3.8600000000000002e-02 2.1131136935098493e+01 2.1034078792765840e+01 2.3050626432417356e+01 0 0 4
6183 310 1 -7.9500000000000001e-02 2.4211154580952801e+01 2.5155723473148576e+01 2.1774588266961040e+01 1 3 -2
6869 344 2 3.2599999999999997e-02 2.4503479722754136e+01 2.0467137986984998e+01 1.6729947514355072e+01 0 0 3
10382 520 1 -8.0500000000000002e-02 1.7596948062637846e+01 2.0994060348613782e+01 1.7590676128785827e+01 1 -1 1
10155 508 2 3.8600000000000002e-02 1.6589360331737733e+01 1.4964875586619264e+01 2.4409456790903036e+01 0 1 4
6198 310 2 3.2599999999999997e-02 2.2683334729698746e+01 2.4974273650131178e+01 1.7959259204229134e+01 1 3 -2
1806 91 1 -9.2200000000000004e-02 1.8416356979352141e+01 2.3933788187227165e+01 2.2246785973438318e+01 0 2 -3
6194 310 2 3.8600000000000002e-02 2.2181249640674899e+01 2.4693314145831089e+01 2.2171452868785231e+01 1 3 -2
1819 91 2 3.2599999999999997e-02 1.8552703868222068e+01 2.4474404922618540e+01 2.1278215741377831e+01 0 2 -3
1108 56 2 3.2599999999999997e-02 2.4294695687161774e+01 2.7750070562330976e+01 1.7124198276198356e+01 -1 1 1
10389 520 2 3.2599999999999997e-02 1.6516685239872967e+01 2.1628652503271624e+01 1.9424086909021138e+01 1 -1 1
7339 367 2 3.2599999999999997e-02 1.7818596494193940e+01 2.5869432732597335e+01 1.8246589251722355e+01 1 -1 1
1114 56 2 3.8600000000000002e-02 2.3712627574597292e+01 2.9085968903156836e+01 2.1211137805113946e+01 -1 1 1
8435 422 2 3.8600000000000002e-02 1.8689020220936822e+01 2.4609536858955465e+01 1.5464366521023001e+01 0 1 1
8428 422 2 3.2599999999999997e-02 2.3540843260888522e+01 2.4772234437114832e+01 1.5449827877876510e+01 0 1 1
8430 422 2 3.8600000000000002e-02 2.1349792053735992e+01 2.5627332474283779e+01 1.6093857339116852e+01 0 1 1
1816 91 2 3.8600000000000002e-02 1.8647235509335360e+01 2.4628810788507696e+01 2.4286438051262291e+01 0 2 -3
6197 310 2 3.8600000000000002e-02 2.1352200669752783e+01 2.4240211417186856e+01 1.9850032094045599e+01 1 3 -2
6184 310 1 -7.9500000000000001e-02 2.2885628902918423e+01 2.4440985942835205e+01 2.1387427628339719e+01 1 3 -2
10387 520 2 3.2599999999999997e-02 1.8057053515538598e+01 2.2573429220003852e+01 1.9194449947171549e+01 1 -1 1
6967 349 2 3.2599999999999997e-02 2.1722456886267931e+01 1.9332049362392777e+01 2.4829664580813724e+01 0 0 4
6185 310 1 -8.0500000000000002e-02 2.2210565659285930e+01 2.4881339872390996e+01 2.0079884260300506e+01 1 3 -2
1812 91 2 3.8600000000000002e-02 1.8874021575420539e+01 2.7530105856870382e+01 2.4352794000954955e+01 0 2 -3
1815 91 2 3.8600000000000002e-02 1.6767802342443076e+01 2.5814548268058665e+01 2.2982203216539599e+01 0 2 -3
1805 91 1 -8.0500000000000002e-02 1.8701541058008093e+01 2.5010641819548741e+01 2.3301433587400115e+01 0 2 -3
1804 91 1 -7.9500000000000001e-02 1.7762000485099470e+01 2.6181740182301692e+01 2.3074375465208366e+01 0 2 -3
10381 520 1 -9.2200000000000004e-02 1.7179072533608544e+01 2.2077874257675564e+01 1.8620737397339337e+01 1 -1 1
10388 520 2 3.2599999999999997e-02 1.6663560862579040e+01 2.2931654540532147e+01 1.8107194980540292e+01 1 -1 1
1813 91 2 3.8600000000000002e-02 1.7244871367130777e+01 2.8116766838403173e+01 2.3967695182580140e+01 0 2 -3
6190 310 2 3.8600000000000002e-02 2.3959075127743152e+01 2.5548912148431249e+01 2.3918814088415651e+01 1 3 -2
8422 422 1 -8.0500000000000002e-02 2.1413583813298416e+01 2.4960152852979128e+01 1.5228023737785655e+01 0 1 1
1814 91 2 3.8600000000000002e-02 1.8040428530436920e+01 2.6695437247354000e+01 2.2139386084655413e+01 0 2 -3
6199 310 2 3.2599999999999997e-02 2.3399837219923747e+01 2.3663806753398024e+01 1.8789827687640557e+01 1 3 -2
6200 310 2 3.2599999999999997e-02 2.4028597234568448e+01 2.5287692595185373e+01 1.8956613796698502e+01 1 3 -2
8434 422 2 3.8600000000000002e-02 1.8666611448331746e+01 2.6351637742069315e+01 1.5267356154275296e+01 0 1 1
4698 235 2 3.2599999999999997e-02 2.0257811013808151e+01 1.4687755541451484e+01 2.2818750397645335e+01 1 0 -5
2611 131 2 3.8600000000000002e-02 2.4334124157202126e+01 1.8155181268938808e+01 2.5060637047287795e+01 -1 0 2
6868 344 2 3.2599999999999997e-02 2.3983422169671002e+01 2.2103490330477999e+01 1.6849422226185400e+01 0 0 3
6182 310 1 -8.0500000000000002e-02 2.4538050569715274e+01 2.4905442716066418e+01 2.3242683384816800e+01 1 3 -2
1109 56 2 3.2599999999999997e-02 2.3069060044995435e+01 2.8779811657507903e+01 1.6573986577901120e+01 -1 1 1
1118 56 2 3.2599999999999997e-02 2.4383514969005915e+01 2.8230526260297459e+01 2.3540355141584545e+01 -1 1 1
1104 56 1 -7.9500000000000001e-02 2.4721771266538560e+01 2.9353708376435208e+01 2.0866629622504824e+01 -1 1 1
4353 218 2 3.8600000000000002e-02 2.0546219397991056e+01 2.9306985194884771e+01 2.4084054192328225e+01 1 -1 -1
1113 56 2 3.8600000000000002e-02 2.4557872558382890e+01 2.7748161066665006e+01 1.9560995256214618e+01 -1 1 1
2584 130 1 -7.9500000000000001e-02 2.0359451351137210e+01 1.7060000304888867e+01 2.9502204902591686e+01 3 0 3
2594 130 2 3.8600000000000002e-02 2.1216816451390091e+01 1.6425096378895336e+01 2.9621179216799224e+01 3 0 3
366 19 1 -9.2200000000000004e-02 2.4695472971571078e+01 1.9938435694397722e+01 3.0594535621260331e+01 3 -1 -3
365 19 1 -8.0500000000000002e-02 2.4530735607880608e+01 1.9452504840446320e+01 3.2002996474169528e+01 3 -1 -3
379 19 2 3.2599999999999997e-02 2.3820508846599868e+01 2.0456906852684924e+01 3.0256574305527582e+01 3 -1 -3
3886 195 1 -9.2200000000000004e-02 1.7980550143466747e+01 2.6884087649605700e+01 3.5149943065954602e+01 -2 1 -2
376 19 2 3.8600000000000002e-02 2.3928405909460011e+01 2.0279239792649363e+01 3.2399302647898367e+01 3 -1 -3
2591 130 2 3.8600000000000002e-02 1.9131120655342059e+01 1.5261744297788109e+01 2.8173837253041455e+01 3 0 3
377 19 2 3.8600000000000002e-02 2.3790748089625072e+01 1.8639422335003921e+01 3.2124419783987456e+01 3 -1 -3
2595 130 2 3.8600000000000002e-02 1.9561835598986551e+01 1.6467276502274363e+01 3.0000612646641720e+01 3 0 3
2582 130 1 -8.0500000000000002e-02 1.9765384886332505e+01 1.5779119498641229e+01 2.7444399561893963e+01 3 0 3
2592 130 2 3.8600000000000002e-02 1.8920348178743382e+01 1.7707562119450159e+01 2.8117027704022146e+01 3 0 3
2583 130 1 -7.9500000000000001e-02 1.9886985610811475e+01 1.7177627094297986e+01 2.8116543820026241e+01 3 0 3
3899 195 2 3.2599999999999997e-02 1.7968111363233898e+01 2.6228057357005259e+01 3.4378119858469432e+01 -2 1 -2
2581 130 1 -9.2200000000000004e-02 1.9140233535459412e+01 1.5793651329978220e+01 2.6039729528133364e+01 3 0 3
5350 268 2 3.8600000000000002e-02 2.0704476546096949e+01 2.5942630563416934e+01 3.1252223736232363e+01 2 -2 -5
2590 130 2 3.8600000000000002e-02 2.0689033253644315e+01 1.5213797185830794e+01 2.7454844089818465e+01 3 0 3
4995 250 2 3.8600000000000002e-02 2.4629175069575709e+01 1.4651806435069187e+01 3.2245661076641611e+01 3 -1 2
2609 131 2 3.2599999999999997e-02 2.4495978145441459e+01 1.5428742018314654e+01 2.6224718663125532e+01 -1 0 2
2586 130 1 -9.2200000000000004e-02 2.0929537616822273e+01 1.8420340621075525e+01 3.1563377967210318e+01 3 0 3
2601 131 1 -9.2200000000000004e-02 2.3976423784362968e+01 1.6405604404654742e+01 2.6044552021303023e+01 -1 0 2
2607 131 2 3.2599999999999997e-02 2.3734263956150571e+01 1.6916097968475928e+01 2.7020529134379935e+01 -1 0 2
6569 329 2 3.2599999999999997e-02 1.6900840181267036e+01 1.5820101115016119e+01 3.3227981604752664e+01 4 4 0
6562 329 1 -8.0500000000000002e-02 1.8692977450189879e+01 1.5716016312504202e+01 3.4366332954052083e+01 4 4 0
2599 130 2 3.2599999999999997e-02 2.0077250511710002e+01 1.8214716150070988e+01 3.2207705670064385e+01 3 0 3
2593 130 2 3.8600000000000002e-02 2.0630510362110570e+01 1.7773014352657349e+01 2.7589361060375069e+01 3 0 3
428 22 2 3.2599999999999997e-02 1.6539574904105514e+01 2.3741434527742840e+01 2.8534321497265946e+01 1 2 2
2596 130 2 3.8600000000000002e-02 1.9712456358162687e+01 1.9035891297321609e+01 2.9878619216293810e+01 3 0 3
2585 130 1 -8.0500000000000002e-02 2.0617800388526305e+01 1.8453575716277747e+01 3.0090282254172806e+01 3 0 3
3900 195 2 3.2599999999999997e-02 1.8565723454211405e+01 2.7821365614956505e+01 3.4968456499946520e+01 -2 1 -2
6886 345 1 -9.2200000000000004e-02 1.9205893515044504e+01 2.1073111631609354e+01 3.4248232720399280e+01 1 0 3
6570 329 2 3.8600000000000002e-02 1.9719110495286444e+01 1.6055358145036799e+01 3.4196420432630546e+01 4 4 0
2598 130 2 3.2599999999999997e-02 2.1693392001005339e+01 1.7695682086724911e+01 3.1815341432945793e+01 3 0 3
5360 268 2 3.2599999999999997e-02 2.1810300079594036e+01 2.2339348919933656e+01 2.7680333356843253e+01 2 -2 -5
10760 538 2 3.2599999999999997e-02 2.4516073548005846e+01 2.3609197802428554e+01 3.4810859124442707e+01 1 -1 1
2588 130 2 3.2599999999999997e-02 1.8267770584037873e+01 1.6414850507990653e+01 2.6115972389519158e+01 3 0 3
2600 130 2 3.2599999999999997e-02 2.1227919047140812e+01 1.9429480406575397e+01 3.1885770436662010e+01 3 0 3
2597 130 2 3.8600000000000002e-02 2.1356743613096391e+01 1.9095956416993978e+01 2.9532149633623430e+01 3 0 3
160 8 2 3.2599999999999997e-02 2.1780450830393438e+01 2.6438407582819018e+01 2.5187671967290328e+01 2 -2 0
5351 268 2 3.8600000000000002e-02 2.0871574058818084e+01 2.5253911823051673e+01 3.2872565472260952e+01 2 -2 -5
6571 329 2 3.8600000000000002e-02 1.8702072912048994e+01 1.4646422019837127e+01 3.4231053129078710e+01 4 4 0
156 8 2 3.8600000000000002e-02 2.2355279915878860e+01 2.7608243613185433e+01 2.7178588645977431e+01 2 -2 0