LAMMPS data file via write_data, version 7 Aug 2019, timestep = 5000000

6000 atoms
4 atom types
5000 bonds
3 bond types
7000 angles
3 angle types
3000 dihedrals
1 dihedral types

-2.4705229408371316e+00 3.8470522940816409e+01 xlo xhi
-2.4705229408371316e+00 3.8470522940816409e+01 ylo yhi
-2.4705229408371316e+00 3.8470522940816409e+01 zlo zhi

Masses

1 12.01
2 16
3 1.008
4 1.008

Pair Coeffs # lj/cut/coul/long

1 0.1094 3.39967
2 0.2104 3.06647
3 0.0157 2.47135
4 0 0

Bond Coeffs # harmonic

1 316.7 1.4233
2 330.6 1.0969
3 371.4 0.973

Angle Coeffs # harmonic

1 47.38 107.26
2 50.93 110.26
3 39.24 108.46

Dihedral Coeffs # harmonic

1 0.166667 1 3

Atoms # full

4739 790 3 2.8700000000000000e-02 6.4495980756879692e-02 -1.9588022737837604e-01 7.5071219499273245e-01 0 2 6
423 71 3 2.8700000000000000e-02 2.2914084034885542e+00 4.3565678980122913e+00 7.6307650062493089e+00 -1 0 -2
1855 310 1 1.1670000000000000e-01 -1.3614037726955215e+00 1.7232884701265310e+00 2.7613530005017077e+00 1 -5 1
421 71 1 1.1670000000000000e-01 3.2841928396713120e+00 4.8067224219227569e+00 7.6471571962716531e+00 -1 0 -2
2736 456 4 3.9600000000000002e-01 4.2071028202408591e+00 6.6041253273920333e+00 6.5617811003565829e-01 -3 -3 2
1589 265 3 2.8700000000000000e-02 3.8296323993866817e+00 6.2532395291470833e+00 -1.9430262304588519e+00 0 4 0
1135 190 1 1.1670000000000000e-01 2.7361516122821197e+00 -1.9104777221886922e+00 2.4125986297260121e-01 -1 0 -3
1858 310 3 2.8700000000000000e-02 -1.6980162596270507e+00 1.4168902420349012e+00 1.7962020046735307e+00 1 -5 1
1494 249 4 3.9600000000000002e-01 -1.9941320257845516e+00 2.4830462565894346e-01 6.6115627558670376e+00 0 2 2
1136 190 2 -5.9880000000000000e-01 2.3504828108269042e+00 -1.3063780008187376e+00 -1.0408968504639855e+00 -1 0 -3
2729 455 3 2.8700000000000000e-02 4.5663713499203276e+00 6.6218971453721345e+00 4.1863892196622894e+00 0 1 4
1628 272 2 -5.9880000000000000e-01 -4.0847715762774739e-02 2.4966754165680611e+00 5.5364894714061128e+00 -1 0 1
1165 195 1 1.1670000000000000e-01 2.2176069944308145e+00 6.1247089876105354e-01 4.0193959144120077e+00 0 1 1
1856 310 2 -5.9880000000000000e-01 -1.0203462897185180e+00 6.6823884426003588e-01 3.7085944874584080e+00 1 -5 1
2730 455 4 3.9600000000000002e-01 3.4151703978348045e+00 7.7619536795197464e+00 5.9209642180516369e+00 0 1 4
1140 190 4 3.9600000000000002e-01 2.7201275786772490e+00 -4.0540911391931117e-01 -9.4346187316067032e-01 -1 0 -3
1167 195 3 2.8700000000000000e-02 1.3703016423427290e+00 6.9432642069060513e-01 3.3252743209919191e+00 0 1 1
1169 195 3 2.8700000000000000e-02 3.2047080489108701e+00 2.9280905741902202e-01 3.4772600647323197e+00 0 1 1
1168 195 3 2.8700000000000000e-02 1.9141299852655380e+00 -5.6450049573434705e-02 4.8024949787814961e+00 0 1 1
1787 298 3 2.8700000000000000e-02 9.4420223179081475e-01 2.3414380865447639e+00 -1.6598431281059597e-01 -3 2 0
1792 299 3 2.8700000000000000e-02 -2.0599833902197346e+00 -2.3351954555330852e+00 -2.1400096432199498e+00 1 3 -1
4485 748 3 2.8700000000000000e-02 -1.1005912218058327e+00 5.5021208745187478e+00 -1.9551299739684471e+00 -2 -2 1
784 131 3 2.8700000000000000e-02 9.0419007827939772e+00 -1.7169463649356969e+00 -2.1157660201873876e+00 1 -1 -4
1784 298 2 -5.9880000000000000e-01 2.7486902918217337e+00 1.5465355413825035e+00 -8.1248914699969610e-01 -3 2 0
3844 641 3 2.8700000000000000e-02 1.1055886482724713e+01 4.1144340381996375e-01 6.5256550544934928e+00 0 2 1
1785 298 3 2.8700000000000000e-02 2.3037979014346437e+00 3.3410893298552020e+00 -1.4336060493231925e-01 -3 2 0
1786 298 3 2.8700000000000000e-02 2.0298499255151428e+00 2.1040551767932034e+00 1.1025325953666769e+00 -3 2 0
1783 298 1 1.1670000000000000e-01 2.0250877573405943e+00 2.3043726213696445e+00 5.7610113754998492e-02 -3 2 0
4486 748 3 2.8700000000000000e-02 1.0749197264135131e-01 4.1011386952448792e+00 -2.0893489394507778e+00 -2 -2 1
1518 253 4 3.9600000000000002e-01 8.8596356860452374e+00 7.1014867870258103e+00 5.5033433357011532e+00 -1 0 -2
4736 790 2 -5.9880000000000000e-01 -9.5554342702492134e-01 -1.4465010726711287e+00 1.8922538282601660e+00 0 2 6
781 131 1 1.1670000000000000e-01 7.9982485710593592e+00 -2.1070238239031731e+00 -1.9663790017527945e+00 1 -1 -4
1630 272 3 2.8700000000000000e-02 -8.0302383679689293e-01 4.4415812236415189e+00 5.2129534191986835e+00 -1 0 1
1632 272 4 3.9600000000000002e-01 -5.1404976629878862e-01 1.6451275241747705e+00 5.2949447875283262e+00 -1 0 1
1137 190 3 2.8700000000000000e-02 2.7894330585238714e+00 -1.1561969732196489e+00 1.0595060328361408e+00 -1 0 -3
198 33 4 3.9600000000000002e-01 3.8985984085514609e+00 2.1174335237051412e+00 3.4773373595568251e+00 3 -4 1
1629 272 3 2.8700000000000000e-02 -1.9691651598862425e+00 3.1084736703464730e+00 5.0086607235437892e+00 -1 0 1
1627 272 1 1.1670000000000000e-01 -1.0872182654300180e+00 3.4550882481938441e+00 5.6345251070724531e+00 -1 0 1
1414 236 3 2.8700000000000000e-02 4.7957880777214585e+00 -1.0352273633488602e+00 7.1401202925114422e+00 0 4 2
1166 195 2 -5.9880000000000000e-01 2.4430293836023975e+00 1.9780040802654835e+00 4.4344696249263267e+00 0 1 1
1491 249 3 2.8700000000000000e-02 -1.1854488782215498e+00 -2.3676224457285020e+00 6.3423159993633043e+00 0 2 2
1170 195 4 3.9600000000000002e-01 1.6283124168681811e+00 2.1791031971428851e+00 4.9824934159595484e+00 0 1 1
1910 319 2 -5.9880000000000000e-01 4.2699505156591749e-01 7.4039736557536271e+00 4.0490004987943644e+00 1 -2 -2
4454 743 2 -5.9880000000000000e-01 8.0566383618178108e+00 2.1354628119795835e+00 -3.8514260448595788e-01 -1 0 0
4457 743 3 2.8700000000000000e-02 7.3725080643546308e+00 2.3063226888580597e+00 -2.3596968445328788e+00 -1 0 0
1493 249 3 2.8700000000000000e-02 -2.0284145447045585e+00 -1.4088169875593424e+00 5.3329075386877012e+00 0 2 2
1631 272 3 2.8700000000000000e-02 -1.2821839849713781e+00 3.5040306261913416e+00 6.7273114628401851e+00 -1 0 1
1489 249 1 1.1670000000000000e-01 -1.0670281567408562e+00 -1.3701093027463278e+00 5.8844289308014721e+00 0 2 2
5330 889 2 -5.9880000000000000e-01 1.0418803980321018e+01 -2.4483740322893013e+00 4.6842043313049171e+00 -5 1 3
699 117 3 2.8700000000000000e-02 1.1074826286015973e+01 5.7367861975461416e+00 3.5732298592773577e+00 -4 3 -3
1912 319 3 2.8700000000000000e-02 1.0502192376963702e+00 7.1164770693232171e+00 2.1198254205974840e+00 1 -2 -2
1909 319 1 1.1670000000000000e-01 5.1690139881846886e-01 6.5499334435244805e+00 2.9732812473392225e+00 1 -2 -2
4484 748 2 -5.9880000000000000e-01 -1.7827381311598176e+00 3.7472304147063036e+00 -1.3474080049460258e+00 -2 -2 1
3910 652 3 2.8700000000000000e-02 1.0383422208355574e+01 -2.9801599637928489e-01 1.3949852286757551e+00 5 1 3
1860 310 4 3.9600000000000002e-01 -8.4677689090436548e-01 -1.7859311507482226e-01 3.1664603145579999e+00 1 -5 1
1913 319 3 2.8700000000000000e-02 -4.8515544571446945e-01 6.3334501960623726e+00 2.5588738829204560e+00 1 -2 -2
4483 748 1 1.1670000000000000e-01 -6.8325788181556590e-01 4.6323476966935617e+00 -1.5046773431766163e+00 -2 -2 1
2725 455 1 1.1670000000000000e-01 4.4405623345057101e+00 7.7611581721542739e+00 4.0793159034379043e+00 0 1 4
1859 310 3 2.8700000000000000e-02 -3.6811960816219480e-01 2.2022942262527745e+00 2.4979296289434774e+00 1 -5 1
195 33 3 2.8700000000000000e-02 5.8925622717493535e+00 3.2773372586578291e+00 4.3403438155067322e+00 3 -4 1
3030 505 4 3.9600000000000002e-01 1.0528791206595345e+01 7.3163738192143235e+00 1.3309588527696212e+00 0 -3 -1
3345 558 3 2.8700000000000000e-02 1.6574479669111870e+00 7.8223928253460084e-01 6.8754501307677263e+00 3 -6 -3
4735 790 1 1.1670000000000000e-01 -6.2702181453533734e-01 -1.0416706242184914e+00 5.6951207414052774e-01 0 2 6
1857 310 3 2.8700000000000000e-02 -2.0275566214768843e+00 2.5212598154889134e+00 3.0901711160189813e+00 1 -5 1
1911 319 3 2.8700000000000000e-02 1.0656516926543522e+00 5.6577376519028917e+00 3.3449513560199846e+00 1 -2 -2
1490 249 2 -5.9880000000000000e-01 -1.1694091735299410e+00 -3.1134048545602877e-01 6.8350496369249250e+00 0 2 2
4740 790 4 3.9600000000000002e-01 -1.7436638074590181e+00 -2.0752496071988831e+00 1.9260307287084255e+00 0 2 6
1586 265 2 -5.9880000000000000e-01 3.2095484959616365e+00 7.5770504953578497e+00 -5.2243170029422736e-01 0 4 0
1588 265 3 2.8700000000000000e-02 2.0601405663361083e+00 6.2368031364541032e+00 -1.5252945173700800e+00 0 4 0
4487 748 3 2.8700000000000000e-02 -2.6744421932717410e-01 4.8862841593990405e+00 -5.6707030651589718e-01 -2 -2 1
425 71 3 2.8700000000000000e-02 3.7714418848615003e+00 4.4674274926908097e+00 6.7136514718737867e+00 -1 0 -2
1585 265 1 1.1670000000000000e-01 2.9724116698172129e+00 6.9174467577005618e+00 -1.7589482958195057e+00 0 4 0
1415 236 3 2.8700000000000000e-02 6.3986438718442127e+00 -1.3986057849279956e+00 7.1447211108678861e+00 0 4 2
2733 456 3 2.8700000000000000e-02 6.6965819531073683e+00 6.8201416115233027e+00 5.8116873444922179e-01 -3 -3 2
3025 505 1 1.1670000000000000e-01 9.6727388728546071e+00 5.6672092141705184e+00 9.6484237657470062e-01 0 -3 -1
5956 993 3 2.8700000000000000e-02 1.4942508357801942e+00 -2.2721602168683632e+00 7.6698957189818842e+00 3 3 2
5748 958 4 3.9600000000000002e-01 5.1569960810511910e+00 1.6881093077540825e+00 1.1558340195824366e+00 -1 3 5
194 33 2 -5.9880000000000000e-01 4.6953374148421441e+00 2.2055981570375769e+00 2.9079186429120956e+00 3 -4 1
1788 298 4 3.9600000000000002e-01 3.6686693739304825e+00 1.6781778044589233e+00 -6.0665964819498053e-01 -3 2 0
4455 743 3 2.8700000000000000e-02 8.9877281104113464e+00 2.7255807854173066e+00 -2.0917240631676410e+00 -1 0 0
3912 652 4 3.9600000000000002e-01 9.8827860147000202e+00 7.7813372869988617e-01 -4.6569821845514192e-01 5 1 3
3028 505 3 2.8700000000000000e-02 9.3513661816250533e+00 5.2060591849737348e+00 5.3315936463669333e-02 0 -3 -1
3908 652 2 -5.9880000000000000e-01 1.0612988820194046e+01 1.3631869342106523e-01 -5.6193041829533452e-01 5 1 3
3029 505 3 2.8700000000000000e-02 8.8297897219404966e+00 5.5483431203112055e+00 1.6678653618645749e+00 0 -3 -1
5223 871 3 2.8700000000000000e-02 4.2066846950948289e+00 -1.9829155841373725e+00 5.1596497044745737e+00 -1 -4 -1
4738 790 3 2.8700000000000000e-02 -4.3956520921229258e-02 -1.8291287283262221e+00 9.1943294566977363e-02 0 2 6
207 35 3 2.8700000000000000e-02 8.9832271246599014e+00 2.7364257468899938e-01 4.0369586087268869e+00 0 3 0
206 35 2 -5.9880000000000000e-01 7.9357136058876590e+00 -1.4559713479395340e+00 3.9228380580417865e+00 0 3 0
4737 790 3 2.8700000000000000e-02 -1.5379360247226495e+00 -8.0739752610087179e-01 5.4078032336674256e-02 0 2 6
1514 253 2 -5.9880000000000000e-01 9.1707183638671079e+00 7.1276814046397918e+00 6.4155288340081400e+00 -1 0 -2
196 33 3 2.8700000000000000e-02 4.8067726477103516e+00 4.3011919370430833e+00 3.3165410118471943e+00 3 -4 1
992 166 2 -5.9880000000000000e-01 9.5806800907215415e+00 4.2025777516359977e+00 5.0934547217238713e+00 0 -1 0
5226 871 4 3.9600000000000002e-01 6.0915146819085049e+00 -2.1569845547934081e+00 3.6066405541902888e+00 -1 -4 -1
1492 249 3 2.8700000000000000e-02 -1.9756936757742877e-01 -1.2382958280509386e+00 5.2653030811581143e+00 0 2 2
193 33 1 1.1670000000000000e-01 5.3963700835297788e+00 3.3823697515376985e+00 3.3356288125883711e+00 3 -4 1
197 33 3 2.8700000000000000e-02 6.2152510779683361e+00 3.4765144057467179e+00 2.6099515266655171e+00 3 -4 1
5745 958 3 2.8700000000000000e-02 6.8691450579823110e+00 5.8137780182318466e-02 4.3151510002568011e-01 -1 3 5
996 166 4 3.9600000000000002e-01 1.0086942440815877e+01 3.7279726848904460e+00 4.3784680247890622e+00 0 -1 0
993 166 3 2.8700000000000000e-02 9.3122218184702845e+00 2.2791495578464271e+00 5.6910053645145071e+00 0 -1 0
2734 456 3 2.8700000000000000e-02 5.7896716879102277e+00 6.6531447280113465e+00 -8.4342802742337708e-01 -3 -3 2
5747 958 3 2.8700000000000000e-02 5.4258716427479774e+00 -4.9987866263665698e-01 1.1423853024900139e+00 -1 3 5
4458 743 4 3.9600000000000002e-01 7.0775248192169693e+00 2.0285376168623479e+00 -1.2016650818995235e-01 -1 0 0
2731 456 1 1.1670000000000000e-01 5.9722352372540337e+00 6.1172259031544307e+00 6.6348102092373559e-02 -3 -3 2
2732 456 2 -5.9880000000000000e-01 4.8157023410475670e+00 5.8918696980347551e+00 8.5324060750298147e-01 -3 -3 2
5746 958 3 2.8700000000000000e-02 5.6450870452238577e+00 -5.1289454522593880e-01 -6.2541788807656185e-01 -1 3 5
991 166 1 1.1670000000000000e-01 9.0822355077993535e+00 3.2380794070547698e+00 6.0410673151494132e+00 0 -1 0
209 35 3 2.8700000000000000e-02 7.3470118740320567e+00 4.1761801312893138e-01 3.3786939023871141e+00 0 3 0
3026 505 2 -5.9880000000000000e-01 9.8253563649154998e+00 7.0440218430214836e+00 7.0613736930061910e-01 0 -3 -1
3027 505 3 2.8700000000000000e-02 1.0556178012868402e+01 5.1657903909182217e+00 1.2936694957011283e+00 0 -3 -1
205 35 1 1.1670000000000000e-01 8.0015214396611931e+00 -2.9374415484203529e-02 4.1270057531778015e+00 0 3 0
2735 456 3 2.8700000000000000e-02 6.5550542977773274e+00 5.2324518233316013e+00 -1.3015054107175034e-01 -3 -3 2
3907 652 1 1.1670000000000000e-01 1.1157080839251854e+01 4.2670250645509319e-02 7.2585178395454053e-01 5 1 3
5222 871 2 -5.9880000000000000e-01 5.1845693787610330e+00 -2.0209384447442740e+00 3.3283922915140374e+00 -1 -4 -1
4453 743 1 1.1670000000000000e-01 7.9803321143572932e+00 2.7827901674273452e+00 -1.6007179554324520e+00 -1 0 0
5744 958 2 -5.9880000000000000e-01 5.3511846567850974e+00 1.3962098628545279e+00 1.9668337861260402e-01 -1 3 5
785 131 3 2.8700000000000000e-02 7.4026977681049617e+00 -1.2784830403952185e+00 -1.6150237813010819e+00 1 -1 -4
994 166 3 2.8700000000000000e-02 8.0045196040888786e+00 3.4123623038086381e+00 6.1203148174212476e+00 0 -1 0
1914 319 4 3.9600000000000002e-01 1.3616488025271649e+00 7.5868844983564996e+00 4.4070754895870188e+00 1 -2 -2
995 166 3 2.8700000000000000e-02 9.5101890466538634e+00 3.3657084375516892e+00 6.9995324813842226e+00 0 -1 0
5743 958 1 1.1670000000000000e-01 5.8375972263680902e+00 5.0777517154151103e-02 2.8143857752465806e-01 -1 3 5
4456 743 3 2.8700000000000000e-02 7.7439240070499444e+00 3.8290289172891305e+00 -1.4488782902575694e+00 -1 0 0
208 35 3 2.8700000000000000e-02 7.6381231881846707e+00 2.0139311741148477e-01 5.0495945962105413e+00 0 3 0
210 35 4 3.9600000000000002e-01 8.8515157158761379e+00 -1.7321961330586264e+00 3.9710670700155055e+00 0 3 0
5334 889 4 3.9600000000000002e-01 1.1119511837793038e+01 -1.9737100579547797e+00 5.1476261868012800e+00 -5 1 3
174 29 4 3.9600000000000002e-01 8.8778003504112650e+00 7.5123305839934469e+00 -1.4564910030296372e+00 0 -1 3
4068 678 4 3.9600000000000002e-01 1.9336908413327338e+00 -2.4038146489783072e+00 1.5628542194750429e+01 -1 1 -1
253 43 1 1.1670000000000000e-01 2.3906957946363883e-02 2.1336550679275734e+00 1.5254820391171197e+01 0 2 -1
1712 286 2 -5.9880000000000000e-01 -1.5210502693804373e+00 7.1841844354255713e+00 1.4527327156632927e+01 1 -2 -1
3344 558 2 -5.9880000000000000e-01 7.1439676907049787e-01 9.7464614310788988e-01 8.7083926115580041e+00 3 -6 -3
3244 541 3 2.8700000000000000e-02 1.2567107762671152e+00 6.7801408818313194e+00 1.6243451859238053e+01 2 -1 -4
4617 770 3 2.8700000000000000e-02 2.7394743180673884e+00 -2.1880997075604758e+00 1.1551695653934360e+01 5 0 0
4615 770 1 1.1670000000000000e-01 3.0361853597624333e+00 -1.3545641666415793e+00 1.0829352354088787e+01 5 0 0
4616 770 2 -5.9880000000000000e-01 2.1874878914026952e+00 -1.9068450769477774e-01 1.1088872666607413e+01 5 0 0
4618 770 3 2.8700000000000000e-02 4.1051996140748201e+00 -1.1326516885553501e+00 1.0902876405921933e+01 5 0 0
3245 541 3 2.8700000000000000e-02 1.1499625306076167e+00 5.1346625868432598e+00 1.5344060793272371e+01 2 -1 -4
4620 770 4 3.9600000000000002e-01 1.6750604558501616e+00 -1.0280825189986076e-01 1.0257077770538672e+01 5 0 0
4619 770 3 2.8700000000000000e-02 3.0036411639961949e+00 -1.6790505302959993e+00 9.7512747201895031e+00 5 0 0
3241 541 1 1.1670000000000000e-01 1.0133983733275966e+00 5.6860519387028985e+00 1.6301642214537914e+01 2 -1 -4
3243 541 3 2.8700000000000000e-02 1.8122328047597931e+00 5.3210091528456998e+00 1.6955113296045965e+01 2 -1 -4
1344 224 4 3.9600000000000002e-01 8.0824007631822636e-01 2.5465759686420144e+00 1.0181658277523866e+01 0 2 0
3246 541 4 3.9600000000000002e-01 -7.6696856392179513e-01 6.2977794588758576e+00 1.6375048374493346e+01 2 -1 -4
4064 678 2 -5.9880000000000000e-01 2.1611284983966619e+00 -1.4636963028351004e+00 1.5917483414776372e+01 -1 1 -1
1340 224 2 -5.9880000000000000e-01 8.1530449582401687e-01 3.4168959555876151e+00 1.0597049962830269e+01 0 2 0
3242 541 2 -5.9880000000000000e-01 -2.8339176236098684e-01 5.5511055998829271e+00 1.6834618609632916e+01 2 -1 -4
3745 625 1 1.1670000000000000e-01 9.1908200695366826e+00 6.8645189621425171e+00 1.1842031985346010e+01 0 -1 -2
1342 224 3 2.8700000000000000e-02 6.7330077746760286e-01 3.6172334345946076e+00 1.2665124992143916e+01 0 2 0
1411 236 1 1.1670000000000000e-01 5.5538001035569300e+00 -1.4338933798969578e+00 7.7897222686915137e+00 0 4 2
1339 224 1 1.1670000000000000e-01 2.9149695347016175e-01 2.9919769775766700e+00 1.1874651520853099e+01 0 2 0
1343 224 3 2.8700000000000000e-02 7.1910460711593815e-01 2.0259815025049210e+00 1.2078615689870658e+01 0 2 0
3347 558 3 2.8700000000000000e-02 2.1327623141011069e+00 2.1327728890718363e+00 7.8315779334018867e+00 3 -6 -3
4065 678 3 2.8700000000000000e-02 1.8513017171620496e+00 -1.9370347054520792e-01 1.7634527049197654e+01 -1 1 -1
1341 224 3 2.8700000000000000e-02 -7.9640479247420526e-01 2.7745371697141290e+00 1.1932240274973056e+01 0 2 0
4063 678 1 1.1670000000000000e-01 1.7844711320690705e+00 -1.2823319684423093e+00 1.7307215192436555e+01 -1 1 -1
5557 927 1 1.1670000000000000e-01 4.9530236940280792e-01 6.8709198058169605e+00 1.0375205387880547e+01 -1 -3 -2
5562 927 4 3.9600000000000002e-01 1.3879281418096538e+00 5.1635704494718864e+00 1.0785694233184556e+01 -1 -3 -2
1760 294 2 -5.9880000000000000e-01 -8.8748629241117494e-01 -2.0246474688353313e+00 9.4789438010758413e+00 1 3 -1
688 115 3 2.8700000000000000e-02 6.8039197588195384e+00 -3.3668546525599846e-01 1.7851702018723554e+01 2 -4 1
1413 236 3 2.8700000000000000e-02 5.6075444193191437e+00 -7.3702996055544912e-01 8.6823680623150654e+00 0 4 2
5939 990 3 2.8700000000000000e-02 1.0388776682669620e+01 4.2833359989775222e+00 8.6239926480026678e+00 2 1 -2
5547 925 3 2.8700000000000000e-02 5.6045148744230202e+00 4.2021238285513522e+00 1.2758292734368354e+01 1 3 5
3348 558 4 3.9600000000000002e-01 9.7699683715614272e-02 4.9823641755650205e-01 8.1322374030820921e+00 3 -6 -3
5508 918 4 3.9600000000000002e-01 -1.1847880803872601e+00 2.5286096919378537e-01 1.7465889282531450e+01 2 3 0
3343 558 1 1.1670000000000000e-01 1.8845058078248529e+00 1.1045331022333407e+00 7.8965443308977363e+00 3 -6 -3
255 43 3 2.8700000000000000e-02 -5.3514411534032935e-01 2.3948954822398689e+00 1.4385888285136124e+01 0 2 -1
254 43 2 -5.9880000000000000e-01 -8.7251475929777250e-02 7.7160061380104528e-01 1.5466349791273711e+01 0 2 -1
1764 294 4 3.9600000000000002e-01 -9.6053245454200431e-01 -1.0596625909124537e+00 9.5797687849481061e+00 1 3 -1
1669 279 1 1.1670000000000000e-01 6.8776213387575194e+00 5.1083794869666033e+00 8.9020065739861316e+00 0 0 -5
2750 459 2 -5.9880000000000000e-01 9.3244226400368717e+00 3.7492693526425622e+00 1.1005842893750655e+01 -5 -5 -1
424 71 3 2.8700000000000000e-02 3.7905555488984874e+00 4.5073239495878692e+00 8.5754776951830749e+00 -1 0 -2
1762 294 3 2.8700000000000000e-02 -1.3761597955883351e-01 -1.8987456036665395e+00 1.1492377152197585e+01 1 3 -1
2796 466 4 3.9600000000000002e-01 5.0059341277383682e+00 7.5881307208400761e+00 1.7879407954599085e+01 3 -3 -1
5561 927 3 2.8700000000000000e-02 -2.1440601677988050e-01 6.3449109572796045e+00 9.6350419901830637e+00 -1 -3 -2
5560 927 3 2.8700000000000000e-02 -5.4966388904612591e-02 7.0174990815494223e+00 1.1358731225064052e+01 -1 -3 -2
1670 279 2 -5.9880000000000000e-01 6.6200837431149200e+00 5.3809890915308465e+00 1.0289401038101779e+01 0 0 -5
3132 522 4 3.9600000000000002e-01 3.7606425102791694e+00 -6.8344842208190015e-01 1.5241448462902701e+01 2 2 3
3129 522 3 2.8700000000000000e-02 2.7543046871701709e+00 9.3503674805319126e-01 1.3919589440589858e+01 2 2 3
258 43 4 3.9600000000000002e-01 7.0283310681970923e-01 3.6704554380383220e-01 1.5117500807593734e+01 0 2 -1
3748 625 3 2.8700000000000000e-02 8.6943612987737353e+00 6.4200850709569055e+00 1.1005325963777633e+01 0 -1 -2
3346 558 3 2.8700000000000000e-02 2.6365191939178820e+00 3.8566621615619590e-01 8.1737369265784707e+00 3 -6 -3
5558 927 2 -5.9880000000000000e-01 1.6784600319758347e+00 6.1117934100001525e+00 1.0553426915417987e+01 -1 -3 -2
257 43 3 2.8700000000000000e-02 -4.6167849013927337e-01 2.6059769800964685e+00 1.6103303529317390e+01 0 2 -1
426 71 4 3.9600000000000002e-01 3.0362783960238020e+00 6.2948361313475081e+00 8.7730719713887702e+00 -1 0 -2
422 71 2 -5.9880000000000000e-01 3.3101249944577065e+00 6.2103182680241993e+00 7.8285202338722391e+00 -1 0 -2
2186 365 2 -5.9880000000000000e-01 4.3741602830791413e+00 2.2963607372307981e+00 9.8355963135647819e+00 -2 0 1
2189 365 3 2.8700000000000000e-02 5.5300483899250077e+00 1.0069851468234667e+00 1.0896048144513690e+01 -2 0 1
2187 365 3 2.8700000000000000e-02 6.1957304153316537e+00 2.5146579303020009e+00 1.0632361290568188e+01 -2 0 1
256 43 3 2.8700000000000000e-02 1.0639890611194878e+00 2.4288203939393003e+00 1.5153673365035100e+01 0 2 -1
1743 291 3 2.8700000000000000e-02 1.0677073225979004e+01 4.3984194734143029e+00 1.3643354276905006e+01 -5 5 -1
1674 279 4 3.9600000000000002e-01 7.4788130249026290e+00 5.1554535132553791e+00 1.0749023955289212e+01 0 0 -5
5549 925 3 2.8700000000000000e-02 4.6198717040334660e+00 5.6554166357843867e+00 1.2412257031830729e+01 1 3 5
2190 365 4 3.9600000000000002e-01 3.7026968426123137e+00 1.9787795321953290e+00 1.0526753947520806e+01 -2 0 1
2185 365 1 1.1670000000000000e-01 5.6160073908495338e+00 1.7956766240603459e+00 1.0140340070191566e+01 -2 0 1
2358 393 4 3.9600000000000002e-01 4.8091495417504406e+00 5.9359686994828804e+00 1.6485655955976814e+01 0 2 1
2188 365 3 2.8700000000000000e-02 6.2449212014976156e+00 1.5185805645145223e+00 9.2567999390345967e+00 -2 0 1
2751 459 3 2.8700000000000000e-02 8.8105029436115725e+00 1.7001545067060759e+00 1.0736765598495101e+01 -5 -5 -1
76 13 3 2.8700000000000000e-02 2.7793643771553436e+00 2.6633226910842516e+00 1.7193326041481352e+01 2 -3 -1
2356 393 3 2.8700000000000000e-02 7.2221192241941088e+00 5.4614090655794874e+00 1.6904376916354106e+01 0 2 1
2749 459 1 1.1670000000000000e-01 9.1568282400420227e+00 2.5432731355568339e+00 1.0223396654170740e+01 -5 -5 -1
472 79 3 2.8700000000000000e-02 6.9035727925229837e+00 2.1631540056179537e+00 1.7750439314119500e+01 -2 3 1
5548 925 3 2.8700000000000000e-02 4.2794792794097258e+00 4.5492679985189008e+00 1.3793674898028241e+01 1 3 5
3747 625 3 2.8700000000000000e-02 1.0276992098904472e+01 6.7070925787330937e+00 1.1788397289922379e+01 0 -1 -2
300 50 4 3.9600000000000002e-01 6.1140039879016674e+00 6.7172683232654729e-01 1.4737330049695215e+01 1 3 -3
2338 390 3 2.8700000000000000e-02 -1.5297712379763797e+00 2.1911321657373080e+00 9.3681273906086968e+00 2 8 2
2752 459 3 2.8700000000000000e-02 1.0077924410196216e+01 2.3297292520324988e+00 9.5953401699022756e+00 -5 -5 -1
2353 393 1 1.1670000000000000e-01 6.7166319888383805e+00 5.5174287172471628e+00 1.5928845935236836e+01 0 2 1
5937 990 3 2.8700000000000000e-02 1.0994472662569684e+01 6.0010811818840564e+00 8.6759314407009196e+00 2 1 -2
5550 925 4 3.9600000000000002e-01 3.8244809161514026e+00 4.0879828929851092e+00 1.1044843241917501e+01 1 3 5
2355 393 3 2.8700000000000000e-02 7.2690410623248320e+00 4.8399855917132362e+00 1.5298971965538865e+01 0 2 1
2754 459 4 3.9600000000000002e-01 1.0198683147812593e+01 3.8491899795125781e+00 1.1509495915113860e+01 -5 -5 -1
4086 681 4 3.9600000000000002e-01 5.9751374803739443e+00 6.9379578462383451e+00 1.0779718104434190e+01 -1 2 3
3128 522 2 -5.9880000000000000e-01 4.3996086494944455e+00 -1.8394516903849678e-01 1.4705136204269843e+01 2 2 3
3131 522 3 2.8700000000000000e-02 3.7596226314148686e+00 1.7441067111427193e+00 1.5224647296858876e+01 2 2 3
3127 522 1 1.1670000000000000e-01 3.8315069756824447e+00 1.0817365684637372e+00 1.4347867546374646e+01 2 2 3
1671 279 3 2.8700000000000000e-02 6.0498794661671127e+00 5.4656447635407224e+00 8.2630868596562213e+00 0 0 -5
2753 459 3 2.8700000000000000e-02 8.3956877480882888e+00 2.6846756842081017e+00 9.4450254675505825e+00 -5 -5 -1
2354 393 2 -5.9880000000000000e-01 5.3046259768453066e+00 5.2389852312320544e+00 1.5989134664178584e+01 0 2 1
3130 522 3 2.8700000000000000e-02 4.3713627883341477e+00 1.5785641836924915e+00 1.3499385546023019e+01 2 2 3
5545 925 1 1.1670000000000000e-01 4.5473135733860142e+00 4.6225444785979386e+00 1.2727741692818674e+01 1 3 5
4067 678 3 2.8700000000000000e-02 7.2602197356051257e-01 -1.5327245268283345e+00 1.7447328604020939e+01 -1 1 -1
2792 466 2 -5.9880000000000000e-01 4.1743258367957079e+00 7.0074141719446192e+00 1.7918165704681538e+01 3 -3 -1
1761 294 3 2.8700000000000000e-02 -1.8586035829540677e+00 -2.2810104166941896e+00 1.1258304156461664e+01 1 3 -1
3749 625 3 2.8700000000000000e-02 8.8705811248445396e+00 6.2450695233219218e+00 1.2745616040081265e+01 0 -1 -2
469 79 1 1.1670000000000000e-01 7.8850800222798512e+00 2.5306041294761310e+00 1.7972190690151006e+01 -2 3 1
473 79 3 2.8700000000000000e-02 8.3402578825851883e+00 2.6524476665285284e+00 1.6928850371033754e+01 -2 3 1
296 50 2 -5.9880000000000000e-01 7.0507012864475902e+00 7.9890201275543526e-01 1.4497081441234309e+01 1 3 -3
298 50 3 2.8700000000000000e-02 6.7545742573239123e+00 1.9381005919348817e+00 1.2805978887075073e+01 1 3 -3
5546 925 2 -5.9880000000000000e-01 3.6206435516755140e+00 3.9062994847492427e+00 1.1964673701233675e+01 1 3 5
295 50 1 1.1670000000000000e-01 7.1385379244475260e+00 2.0008562147916567e+00 1.3814560552478520e+01 1 3 -3
1672 279 3 2.8700000000000000e-02 6.8833766833027452e+00 4.0248398847493307e+00 8.6671679895727163e+00 0 0 -5
299 50 3 2.8700000000000000e-02 8.2317498159016083e+00 2.3108580799228040e+00 1.3766921743297841e+01 1 3 -3
297 50 3 2.8700000000000000e-02 6.4141167635695293e+00 2.7863062920385455e+00 1.4260339794101665e+01 1 3 -3
1673 279 3 2.8700000000000000e-02 7.8559035160205752e+00 5.5434856403765052e+00 8.6074334389378606e+00 0 0 -5
988 165 3 2.8700000000000000e-02 1.0922607640400104e+01 -2.3225622071320487e-01 1.6983895284913920e+01 3 2 5
2357 393 3 2.8700000000000000e-02 6.8691195007349979e+00 6.4958544661400923e+00 1.5458518102736489e+01 0 2 1
4066 678 3 2.8700000000000000e-02 2.4088984454252182e+00 -1.9352063990498265e+00 1.7979406837836038e+01 -1 1 -1
1745 291 3 2.8700000000000000e-02 1.1103888152419465e+01 2.7536748032660054e+00 1.3793270776591003e+01 -5 5 -1
2335 390 1 1.1670000000000000e-01 -2.4682173059787473e+00 2.2745357269769286e+00 9.8939948575163257e+00 2 8 2
1716 286 4 3.9600000000000002e-01 -2.3993234540514834e+00 7.5324771794905132e+00 1.4118238429313202e+01 1 -2 -1
2339 390 3 2.8700000000000000e-02 -2.2996168112026965e+00 3.2520639741020156e+00 1.0431220853071625e+01 2 8 2
1759 294 1 1.1670000000000000e-01 -8.5811202560445221e-01 -2.4603623809371413e+00 1.0831669555991525e+01 1 3 -1
5576 930 2 -5.9880000000000000e-01 2.2475304499202986e+00 5.8863476527220411e-02 2.1007850621609585e+01 2 3 -2
5580 930 4 3.9600000000000002e-01 2.0582759891606686e+00 6.0837111652345055e-01 2.0212274105301066e+01 2 3 -2
5575 930 1 1.1670000000000000e-01 1.4821800717570877e+00 -1.0967913253896713e+00 2.0901264845044849e+01 2 3 -2
4555 760 1 1.1670000000000000e-01 -4.0508633827454721e-01 5.6293497396456784e+00 2.0238803200342133e+01 1 -3 -1
5577 930 3 2.8700000000000000e-02 4.9661902338682301e-01 -7.9816396347322405e-01 2.0498963912625548e+01 2 3 -2
5175 863 3 2.8700000000000000e-02 2.1785586089242246e+00 6.9169096801143981e+00 2.2145361159903640e+01 2 0 -1
5578 930 3 2.8700000000000000e-02 1.4621124212615753e+00 -1.5334545425558370e+00 2.1939129002711805e+01 2 3 -2
4326 721 4 3.9600000000000002e-01 3.9199026357409137e+00 2.7463419503125952e-01 2.2440940491982882e+01 0 1 -2
4322 721 2 -5.9880000000000000e-01 4.4223812148969426e+00 1.0183867467643477e+00 2.2888443896523221e+01 0 1 -2
331 56 1 1.1670000000000000e-01 -9.5979046536674195e-01 1.3487182100513466e+00 2.1791554013521747e+01 -2 0 -1
5507 918 3 2.8700000000000000e-02 -1.6226518319260284e+00 2.1767883234068481e+00 1.8635426451711680e+01 2 3 0
847 142 1 1.1670000000000000e-01 1.9017520413522446e+00 -2.3729604888886982e-01 2.6212398038491678e+01 2 -2 2
5173 863 1 1.1670000000000000e-01 2.9266313628656304e+00 6.1012018692227317e+00 2.1769451993621303e+01 2 0 -1
848 142 2 -5.9880000000000000e-01 6.3844695527993844e-01 -1.7653586269495902e-01 2.6948744634081134e+01 2 -2 2
332 56 2 -5.9880000000000000e-01 -1.6929383104250844e+00 7.8637689445995740e-01 2.2864438942344506e+01 -2 0 -1
4556 760 2 -5.9880000000000000e-01 2.2708295432669315e-01 4.7395890899841442e+00 1.9394293662367318e+01 1 -3 -1
5579 930 3 2.8700000000000000e-02 1.9206255708504885e+00 -1.8062531887679105e+00 2.0156548366713473e+01 2 3 -2
5178 863 4 3.9600000000000002e-01 1.5346715707784206e+00 5.1200724075730211e+00 2.0947104783875066e+01 2 0 -1
687 115 3 2.8700000000000000e-02 7.6754255835704281e+00 -1.6440895522157453e+00 1.8467526698022660e+01 2 -4 1
335 56 3 2.8700000000000000e-02 9.6836384797543799e-03 8.2617639431803502e-01 2.1760438596720288e+01 -2 0 -1
333 56 3 2.8700000000000000e-02 -9.0868086296102490e-01 2.4370677069734459e+00 2.1899911496968450e+01 -2 0 -1
5174 863 2 -5.9880000000000000e-01 2.3441828243436449e+00 4.8931035798829399e+00 2.1516677171341861e+01 2 0 -1
849 142 3 2.8700000000000000e-02 1.7961499040736006e+00 3.7887466311525569e-01 2.5300587623662121e+01 2 -2 2
74 13 2 -5.9880000000000000e-01 1.9797860608968090e+00 2.1192573189554826e+00 1.9057784842527735e+01 2 -3 -1
1863 311 3 2.8700000000000000e-02 -1.4479787249330980e+00 5.9445838918525649e+00 2.8125126327395733e+01 2 -2 -1