LAMMPS data file via write_data, version 7 Aug 2019, timestep = 4000000

6000 atoms
4 atom types
5000 bonds
3 bond types
7000 angles
3 angle types
3000 dihedrals
1 dihedral types

-2.4705229408371316e+00 3.8470522940816409e+01 xlo xhi
-2.4705229408371316e+00 3.8470522940816409e+01 ylo yhi
-2.4705229408371316e+00 3.8470522940816409e+01 zlo zhi

Masses

1 12.01
2 16
3 1.008
4 1.008

Pair Coeffs # lj/cut/coul/long

1 0.1094 3.39967
2 0.2104 3.06647
3 0.0157 2.47135
4 0 0

Bond Coeffs # harmonic

1 316.7 1.4233
2 330.6 1.0969
3 371.4 0.973

Angle Coeffs # harmonic

1 47.38 107.26
2 50.93 110.26
3 39.24 108.46

Dihedral Coeffs # harmonic

1 0.166667 1 3

Atoms # full

398 67 2 -5.9880000000000000e-01 4.5196083500148889e+00 1.8897155583647880e+00 2.6819543835078150e+00 4 1 1
3581 597 3 2.8700000000000000e-02 2.9472667479029093e+00 4.0159209667854201e+00 4.4177356034105069e+00 2 1 2
4212 702 4 3.9600000000000002e-01 1.2831217611949532e+00 2.1555502603210686e+00 5.9139992555353800e+00 0 -1 0
402 67 4 3.9600000000000002e-01 4.8113936548324867e+00 2.0494575375522697e+00 1.8189122862517113e+00 4 1 1
3578 597 2 -5.9880000000000000e-01 2.4838472973068262e+00 1.9096222418427615e+00 4.5224348433717303e+00 2 1 2
3170 529 2 -5.9880000000000000e-01 5.1400867312026755e+00 2.1315092409146192e+00 -1.2415439131437145e-01 0 -1 1
3582 597 4 3.9600000000000002e-01 2.9620541131724423e+00 1.6603512656618369e+00 3.7235556464731054e+00 2 1 2
3169 529 1 1.1670000000000000e-01 5.5896520984357494e+00 9.9011166110244320e-01 -8.5714835104377340e-01 0 -1 1
4284 714 4 3.9600000000000002e-01 3.0888480168078365e+00 3.9688305048311774e+00 -1.6658222245994838e+00 2 3 0
944 158 2 -5.9880000000000000e-01 3.2265896933328877e+00 5.6042184618782898e+00 -1.9965965613776797e+00 2 -2 -1
1178 197 2 -5.9880000000000000e-01 1.3710749663657391e+00 8.5850086314196172e-01 -2.9573083817731938e-02 -1 2 -1
3150 525 4 3.9600000000000002e-01 -1.0140168487663548e-01 4.9912803689594210e+00 -1.2901398930046288e+00 2 0 2
3174 529 4 3.9600000000000002e-01 4.3678560946175597e+00 2.4745672105249978e+00 -5.0307719549925189e-01 0 -1 1
3577 597 1 1.1670000000000000e-01 3.2411861221228486e+00 3.0926493813239784e+00 4.9813643385924271e+00 2 1 2
3579 597 3 2.8700000000000000e-02 4.3517353091412527e+00 2.9171630061271765e+00 4.8228508091238877e+00 2 1 2
3580 597 3 2.8700000000000000e-02 3.0226123892876382e+00 3.3478492401126747e+00 6.0151114229533107e+00 2 1 2
257 43 3 2.8700000000000000e-02 1.5557477587050172e-01 8.4124508849644073e+00 -4.4588849199022462e-01 -1 3 -1
417 70 3 2.8700000000000000e-02 -2.1844274526951644e+00 9.6167617675569375e+00 7.1420207062589629e+00 -1 2 -4
838 140 3 2.8700000000000000e-02 -2.3407699362828605e+00 1.0754152742486056e-01 3.6815541406555052e+00 0 -2 -2
3171 529 3 2.8700000000000000e-02 5.9347911681803076e+00 2.6148871258236284e-01 -1.1161732790495327e-01 0 -1 1
3033 506 3 2.8700000000000000e-02 2.4870377845150680e+00 3.8879631742051375e+00 1.5663446583505536e+00 1 0 1
3173 529 3 2.8700000000000000e-02 4.7125418862768633e+00 5.9459923091633948e-01 -1.2954158675450398e+00 0 -1 1
3031 506 1 1.1670000000000000e-01 1.9164340220490557e+00 4.7544536306471361e+00 1.8788260962614967e+00 1 0 1
4209 702 3 2.8700000000000000e-02 -1.1192323089157243e+00 8.9955787433404399e-01 6.7883940318444047e+00 0 -1 0
397 67 1 1.1670000000000000e-01 5.3243862392829957e+00 7.5038725329224576e-01 3.0348512450124598e+00 4 1 1
401 67 3 2.8700000000000000e-02 5.4701269590481374e+00 1.2807040242336365e-01 2.0544462157635879e+00 4 1 1
1177 197 1 1.1670000000000000e-01 8.3309055660963560e-01 1.5136353046254825e+00 1.1341309402806550e+00 -1 2 -1
80 14 2 -5.9880000000000000e-01 -2.2200130447873434e+00 3.4352437017101485e+00 1.4486946229943451e+00 2 -2 -2
5175 863 3 2.8700000000000000e-02 5.3082897856899649e+00 1.0931990766034136e+00 6.4603509876328538e+00 0 1 0
1182 197 4 3.9600000000000002e-01 1.7739407935411089e+00 1.5353365944472497e+00 -6.0587076945910390e-01 -1 2 -1
399 67 3 2.8700000000000000e-02 4.7989510951870153e+00 9.3773384144342664e-02 3.7071668478107087e+00 4 1 1
582 97 4 3.9600000000000002e-01 2.8747029752116005e-01 -3.5287099658705579e-01 -5.9464061574669569e-01 4 -1 0
946 158 3 2.8700000000000000e-02 5.0771851939273276e+00 4.9851631506714504e+00 -1.2874546411504075e+00 2 -2 -1
1102 184 3 2.8700000000000000e-02 -9.0714246299414869e-01 -2.3926781443239613e+00 5.7933938499030866e+00 -3 -1 1
4208 702 2 -5.9880000000000000e-01 4.6681292348239856e-01 2.1680263981585437e+00 6.4875087073025064e+00 0 -1 0
3147 525 3 2.8700000000000000e-02 -1.6809903603037946e+00 2.6293680005176832e+00 -1.8396237088216751e+00 2 0 2
3035 506 3 2.8700000000000000e-02 1.7443458212346981e+00 4.6714928878911159e+00 2.9099564392271287e+00 1 0 1
5178 863 4 3.9600000000000002e-01 5.4456769727716070e+00 -1.2252497488616352e+00 5.8012251285303975e+00 0 1 0
241 41 1 1.1670000000000000e-01 4.7552878412772746e+00 7.0299882586818310e+00 7.6033648035632861e+00 -1 2 -1
400 67 3 2.8700000000000000e-02 6.3272426168390901e+00 1.0139693915511012e+00 3.5093378838043474e+00 4 1 1
3034 506 3 2.8700000000000000e-02 1.0624970259380504e+00 4.8804932157813132e+00 1.2417659265560159e+00 1 0 1
4210 702 3 2.8700000000000000e-02 3.7005621167031189e-01 4.8234098604707842e-02 6.4096046232458406e+00 0 -1 0
5173 863 1 1.1670000000000000e-01 4.5331944098887611e+00 3.6148657701209252e-01 6.8482341352716638e+00 0 1 0
4207 702 1 1.1670000000000000e-01 -2.3738063158369727e-01 9.3153262901497191e-01 6.1701045749876062e+00 0 -1 0
5174 863 2 -5.9880000000000000e-01 5.1036533535770268e+00 -9.7591469766699612e-01 6.7299943092375329e+00 0 1 0
2900 484 2 -5.9880000000000000e-01 6.9185638902170083e+00 6.1675137619012883e+00 3.5707304544451057e+00 0 1 0
754 126 3 2.8700000000000000e-02 1.6460191841587379e-01 1.0645483959611699e+01 3.5842843586986310e+00 2 1 -1
83 14 3 2.8700000000000000e-02 -1.7921815160182302e+00 5.1209329546401960e+00 2.6524771187422829e+00 2 -2 -2
1180 197 3 2.8700000000000000e-02 1.6402111017580054e+00 1.5158014652248366e+00 1.9668039215234003e+00 -1 2 -1
4211 702 3 2.8700000000000000e-02 -5.7060047102100975e-01 8.6036053284639147e-01 5.0945833713669133e+00 0 -1 0
97 17 1 1.1670000000000000e-01 5.6041626223891150e-01 7.1585655604466929e+00 5.6324514662068168e+00 -1 -1 0
98 17 2 -5.9880000000000000e-01 7.4294039904930198e-01 8.2925032747827014e+00 6.5529751874583972e+00 -1 -1 0
99 17 3 2.8700000000000000e-02 1.4738447607058709e+00 6.9475255686875528e+00 5.2273651694547709e+00 -1 -1 0
100 17 3 2.8700000000000000e-02 -1.4199890309313989e-01 7.4148692350986920e+00 4.7931993722810597e+00 -1 -1 0
2903 484 3 2.8700000000000000e-02 5.1541083782336985e+00 4.9889369940883173e+00 3.3255350371918393e+00 0 1 0
581 97 3 2.8700000000000000e-02 -1.9271771125992232e+00 2.7964497791873999e-01 -1.2118520359535547e+00 4 -1 0
3145 525 1 1.1670000000000000e-01 -1.3079470744638173e+00 3.5774796515557137e+00 -2.0057038513169738e+00 2 0 2
578 97 2 -5.9880000000000000e-01 -2.4565847630105653e-01 -9.9843498078845649e-01 -1.1202213638615710e+00 4 -1 0
947 158 3 2.8700000000000000e-02 4.1351120431523665e+00 5.9739451830009180e+00 -1.4413583911239769e-01 2 -2 -1
253 43 1 1.1670000000000000e-01 1.0224618454420868e+00 8.0227989434686720e+00 1.3543233482100625e-03 -1 3 -1
256 43 3 2.8700000000000000e-02 7.5054302640615500e-01 8.0101301689111022e+00 1.1164248560159993e+00 -1 3 -1
615 103 3 2.8700000000000000e-02 -2.1262696984737914e+00 5.6177271703614018e+00 5.3198972567893152e+00 -2 -2 0
3172 529 3 2.8700000000000000e-02 6.2793842724402911e+00 1.3355599607781956e+00 -1.6041436778280640e+00 0 -1 1
520 87 3 2.8700000000000000e-02 -1.9887842603854029e+00 6.8936252841648766e+00 -2.0614258083569843e+00 2 -2 0
3032 506 2 -5.9880000000000000e-01 2.6961983338131219e+00 5.9514659588400267e+00 1.7215289811480456e+00 1 0 1
254 43 2 -5.9880000000000000e-01 1.2396656004834159e+00 6.6713042536203950e+00 -4.3974510404484857e-01 -1 3 -1
5618 937 2 -5.9880000000000000e-01 5.2313595742053529e+00 1.0929730825721645e+01 -1.8569439091007258e+00 -1 -3 4
751 126 1 1.1670000000000000e-01 -6.3340086527265749e-01 1.0253582706306233e+01 4.1922113962659537e+00 2 1 -1
755 126 3 2.8700000000000000e-02 -1.5774205637216823e+00 1.0729936812282238e+01 3.9269441854084315e+00 2 1 -1
3742 624 3 2.8700000000000000e-02 7.1367052307294649e+00 9.1493428053450874e+00 4.1941807502387336e+00 0 -2 0
5619 937 3 2.8700000000000000e-02 3.6150543213742994e+00 9.8075821468144646e+00 -1.0840893055963023e+00 -1 -3 4
101 17 3 2.8700000000000000e-02 2.3323536134414580e-01 6.3254237890590730e+00 6.1954754382083514e+00 -1 -1 0
246 41 4 3.9600000000000002e-01 2.9755500805514608e+00 7.7858832872347463e+00 7.6553822840885584e+00 -1 2 -1
752 126 2 -5.9880000000000000e-01 -3.1785221265612407e-01 1.0621070334719994e+01 5.5232738513676365e+00 2 1 -1
84 14 4 3.9600000000000002e-01 -1.8588165912476184e+00 3.9732312916380996e+00 6.8779791676989577e-01 2 -2 -2
102 17 4 3.9600000000000002e-01 2.6650810920201229e-01 9.1042495282203593e+00 6.1335581119098492e+00 -1 -1 0
242 41 2 -5.9880000000000000e-01 3.5528148887024695e+00 7.4395491641408409e+00 6.9141105278704611e+00 -1 2 -1
1181 197 3 2.8700000000000000e-02 8.9598497036749158e-03 9.6168537280879018e-01 1.5957961010606905e+00 -1 2 -1
5617 937 1 1.1670000000000000e-01 4.6788216570653223e+00 9.9817043992607140e+00 -9.5669186779262128e-01 -1 -3 4
3036 506 4 3.9600000000000002e-01 3.2128425868731583e+00 6.1034639980339804e+00 2.5509975185565441e+00 1 0 1
943 158 1 1.1670000000000000e-01 4.3856489888744825e+00 5.8127403213122388e+00 -1.2170526709121032e+00 2 -2 -1
5559 927 3 2.8700000000000000e-02 3.0800056037697425e+00 8.9458700596195673e+00 3.2445573077842464e+00 0 -1 -2
258 43 4 3.9600000000000002e-01 1.7742727587773510e+00 6.3184916588907161e+00 2.6769007454961535e-01 -1 3 -1
945 158 3 2.8700000000000000e-02 4.9033139697753736e+00 6.7487270624782774e+00 -1.5968867134543343e+00 2 -2 -1
5621 937 3 2.8700000000000000e-02 5.1484098020169453e+00 8.9595932936176705e+00 -1.0376712669134389e+00 -1 -3 4
753 126 3 2.8700000000000000e-02 -7.3940298422117867e-01 9.2031335694884113e+00 4.1135943266918638e+00 2 1 -1
5620 937 3 2.8700000000000000e-02 4.7275139713133632e+00 1.0343208033638801e+01 1.2464620533986981e-01 -1 -3 4
148 25 3 2.8700000000000000e-02 7.1829787321701826e+00 2.6642063533887086e+00 4.6792220251833925e+00 -1 3 0
3206 535 2 -5.9880000000000000e-01 6.4893061704076995e+00 -2.1140702218568523e+00 4.4092836258655783e+00 1 2 0
5562 927 4 3.9600000000000002e-01 3.7877434451087648e+00 7.3372309033625900e+00 4.9569731740906811e+00 0 -1 -2
1179 197 3 2.8700000000000000e-02 6.0066914014637884e-01 2.5791930866066020e+00 9.7068194953251830e-01 -1 2 -1
255 43 3 2.8700000000000000e-02 1.8771503370026164e+00 8.7161260682356172e+00 -1.5862250775025410e-01 -1 3 -1
2901 484 3 2.8700000000000000e-02 6.4420611511597698e+00 4.9196009066469975e+00 1.9584740870165911e+00 0 1 0
948 158 4 3.9600000000000002e-01 2.4871574430841212e+00 6.2024212834848331e+00 -1.7386936054823792e+00 2 -2 -1
5560 927 3 2.8700000000000000e-02 4.4024216992026508e+00 8.5284938383292292e+00 2.3999790529323120e+00 0 -1 -2
245 41 3 2.8700000000000000e-02 5.4780949840487025e+00 6.4095341857215260e+00 7.0006356590990091e+00 -1 2 -1
3146 525 2 -5.9880000000000000e-01 -5.4020055737893613e-01 4.1933585918881713e+00 -9.1462692767325215e-01 2 0 2
5558 927 2 -5.9880000000000000e-01 3.8231838744689677e+00 7.1902808114240706e+00 3.9249564967094512e+00 0 -1 -2
2899 484 1 1.1670000000000000e-01 5.9474027098650613e+00 5.5340875544598056e+00 2.7472270816583899e+00 0 1 0
5557 927 1 1.1670000000000000e-01 4.0335757431403758e+00 8.4511265746487449e+00 3.3972077156812288e+00 0 -1 -2
5177 863 3 2.8700000000000000e-02 3.6379480768453130e+00 5.1365102866402079e-01 6.2145963179646895e+00 0 1 0
2902 484 3 2.8700000000000000e-02 5.4343526800965440e+00 6.3225323490631418e+00 2.1516232291622135e+00 0 1 0
2309 385 3 2.8700000000000000e-02 7.4360232889056164e+00 8.6293953654459958e+00 1.0716957502184159e+00 -2 1 -1
5561 927 3 2.8700000000000000e-02 4.6549718961563533e+00 8.9997380194218923e+00 4.1614424990987002e+00 0 -1 -2
2904 484 4 3.9600000000000002e-01 6.3293951294809911e+00 6.8071193051887082e+00 3.9649162139851741e+00 0 1 0
4280 714 2 -5.9880000000000000e-01 2.8850122372242746e+00 2.9761647722196258e+00 -1.4385527322373211e+00 2 3 0
3743 624 3 2.8700000000000000e-02 7.6228823592907631e+00 9.1021484289768662e+00 5.8544690432096012e+00 0 -2 0
577 97 1 1.1670000000000000e-01 -1.1988935420622864e+00 -2.1980490849846746e-01 -1.8143349949877501e+00 4 -1 0
3149 525 3 2.8700000000000000e-02 -2.1057867864293729e+00 4.2309714674884429e+00 -2.2744108116101769e+00 2 0 2
5872 979 3 2.8700000000000000e-02 2.7824580919532700e+00 -2.1104414997793559e+00 2.5055592667358795e-01 -1 -3 2
2307 385 3 2.8700000000000000e-02 7.4016172565065244e+00 6.8878510257131396e+00 3.7574908961729525e-01 -2 1 -1
3310 552 3 2.8700000000000000e-02 -2.4166548240928769e+00 7.2216212593062163e+00 9.3386639559694729e-02 -1 -1 -1
5871 979 3 2.8700000000000000e-02 1.6170130005679288e+00 -2.4129207269754254e+00 1.5648200387608382e+00 -1 -3 2
580 97 3 2.8700000000000000e-02 -6.6236750214329154e-01 5.7676834970397284e-01 -2.4040694603084822e+00 4 -1 0
1420 237 3 2.8700000000000000e-02 3.0902597694423788e+00 4.2717175093239197e+00 7.7143637456032259e+00 2 -3 -1
1005 168 3 2.8700000000000000e-02 6.3228990321876548e+00 1.0870182303618551e+01 7.7425338599107505e+00 0 2 -1
4646 775 2 -5.9880000000000000e-01 4.9658716248381198e+00 2.6945762202066419e+00 1.0792245687563682e+01 2 -1 0
4650 775 4 3.9600000000000002e-01 4.0443339055537750e+00 3.1428091447351489e+00 1.0659043418414324e+01 2 -1 0
4649 775 3 2.8700000000000000e-02 6.4015106797054955e+00 2.2325277537968073e+00 9.3949838494275397e+00 2 -1 0
4648 775 3 2.8700000000000000e-02 4.9679174259306134e+00 2.7300544439425103e+00 8.8428140284957077e+00 2 -1 0
414 69 4 3.9600000000000002e-01 7.2995450611573904e+00 2.8850085891835731e+00 1.4929815089982416e+01 0 1 -1
2544 424 4 3.9600000000000002e-01 6.0976791694618555e+00 2.5301751807261637e+00 1.2287708562881724e+01 -1 -2 1
3079 514 1 1.1670000000000000e-01 3.8406325866541318e+00 1.0260844025795468e+01 1.7484700818350099e+01 1 1 1
410 69 2 -5.9880000000000000e-01 7.0372764578104086e+00 3.3236691996127341e+00 1.5754549094997554e+01 0 1 -1
4645 775 1 1.1670000000000000e-01 5.6286861188895632e+00 2.9420290468046844e+00 9.6523387326901258e+00 2 -1 0
4647 775 3 2.8700000000000000e-02 5.8356259072242072e+00 3.9774083406979814e+00 9.5221744690524321e+00 2 -1 0
5640 940 4 3.9600000000000002e-01 2.2928228305076184e+00 1.9529020711871885e+00 1.3595105394901164e+01 2 0 3
396 66 4 3.9600000000000002e-01 -1.6037646017396727e+00 -7.7013712141613655e-01 1.1467651299752047e+01 -1 -1 -1
1422 237 4 3.9600000000000002e-01 2.2215286363298112e+00 4.0377224542183940e+00 1.0489275084728714e+01 2 -3 -1
3915 653 3 2.8700000000000000e-02 2.5985746874982523e+00 9.9420280770091418e-01 1.0571870655607860e+01 0 1 3
1418 237 2 -5.9880000000000000e-01 2.9318996662105308e+00 4.1370131329522719e+00 9.8297933819389645e+00 2 -3 -1
5636 940 2 -5.9880000000000000e-01 2.6592877632879395e+00 1.7683080458556324e+00 1.4530008468111177e+01 2 0 3
1419 237 3 2.8700000000000000e-02 1.5543972379488116e+00 3.7916499256138358e+00 8.3806195552200062e+00 2 -3 -1
5635 940 1 1.1670000000000000e-01 3.9027437387771888e+00 1.3494355896684480e+00 1.4047184702093279e+01 2 0 3
3592 599 3 2.8700000000000000e-02 5.8981316391218623e+00 -3.1252606576358311e-01 9.8348831756276542e+00 1 1 -3
5637 940 3 2.8700000000000000e-02 3.8688490275611720e+00 2.7024475572174467e-01 1.3896308590656556e+01 2 0 3
1417 237 1 1.1670000000000000e-01 2.3853263580092312e+00 4.5067487244676618e+00 8.5343338798591954e+00 2 -3 -1
3914 653 2 -5.9880000000000000e-01 1.5524892821955314e+00 2.3011324729085239e+00 1.1788928427798472e+01 0 1 3
5639 940 3 2.8700000000000000e-02 4.1263172215253929e+00 1.8549614250992219e+00 1.3043684620761551e+01 2 0 3
5638 940 3 2.8700000000000000e-02 4.6547974966891799e+00 1.5039122712783501e+00 1.4873516914604849e+01 2 0 3
3913 653 1 1.1670000000000000e-01 1.5477753278384156e+00 1.2414143983853738e+00 1.0761816130842609e+01 0 1 3
5247 875 3 2.8700000000000000e-02 4.4221427308664296e-02 9.8364416787006999e+00 1.7978661109805902e+01 3 0 0
5378 897 2 -5.9880000000000000e-01 -9.7226029759719124e-01 2.2776710708842662e+00 1.2912870132622528e+01 2 0 -2
5382 897 4 3.9600000000000002e-01 -1.5895476784300240e+00 1.6607288646159057e+00 1.2431704466911134e+01 2 0 -2
5377 897 1 1.1670000000000000e-01 -1.4346239593058916e+00 3.5940057762315369e+00 1.2661478772117885e+01 2 0 -2
3918 653 4 3.9600000000000002e-01 5.5702348694411308e-01 2.3981215260760544e+00 1.1957114462862393e+01 0 1 3
1593 266 3 2.8700000000000000e-02 7.7325335117140988e+00 6.2988440024574093e+00 1.2986825732196349e+01 0 -2 1
5379 897 3 2.8700000000000000e-02 -1.2987673055196574e+00 3.9208696562713854e+00 1.1622255180431953e+01 2 0 -2
3917 653 3 2.8700000000000000e-02 1.0127598827916700e+00 3.0963974119492921e-01 1.1034815614566371e+01 0 1 3
3591 599 3 2.8700000000000000e-02 5.0747498366067214e+00 -1.8438577631868349e+00 9.6992439856553396e+00 1 1 -3
126 21 4 3.9600000000000002e-01 4.6430130707733328e+00 -1.4809447284601844e+00 1.4201798239086742e+01 -1 4 1
3916 653 3 2.8700000000000000e-02 1.1825117927186088e+00 1.5741467463400287e+00 9.7903971924216133e+00 0 1 3
418 70 3 2.8700000000000000e-02 -1.4607249772982200e+00 1.0706558547900759e+01 8.2389550903460851e+00 -1 2 -4
5737 957 1 1.1670000000000000e-01 1.3484003372047870e+00 1.0113194146771367e+01 1.3234856139860749e+01 1 4 2
395 66 3 2.8700000000000000e-02 -1.7503724073841271e+00 -2.2543898442683865e+00 1.2987624719102264e+01 -1 -1 -1
682 114 3 2.8700000000000000e-02 2.5180277953170886e+00 1.0577228766514494e+01 7.9772014662044253e+00 -1 -2 1
1421 237 3 2.8700000000000000e-02 1.9797919257585717e+00 5.5534032007177530e+00 8.4935041041990420e+00 2 -3 -1
4961 827 3 2.8700000000000000e-02 7.6430479077818809e+00 8.7363807981039496e+00 1.5040999765997650e+01 1 0 2
244 41 3 2.8700000000000000e-02 5.2929140332930436e+00 7.9815983984215375e+00 7.9664059093173911e+00 -1 2 -1
684 114 4 3.9600000000000002e-01 1.3093256882850177e+00 1.0588375510397530e+01 1.0571836594046804e+01 -1 -2 1
243 41 3 2.8700000000000000e-02 4.5412330203313092e+00 6.4716736319865618e+00 8.5234413019449633e+00 -1 2 -1
5884 981 3 2.8700000000000000e-02 -3.9107329308688099e-01 -4.4684335388532803e-01 1.6737214788384613e+01 -2 0 2
270 45 4 3.9600000000000002e-01 3.0307935549561762e+00 2.8035342295244554e+00 1.6188493191798280e+01 -1 0 -1
4220 704 2 -5.9880000000000000e-01 4.0282812344346066e+00 -1.0685961854284955e+00 1.6021706827738964e+01 1 -1 -1
4222 704 3 2.8700000000000000e-02 5.6635398157389751e+00 -1.8166978999173558e+00 1.7135741951332804e+01 1 -1 -1
5519 920 3 2.8700000000000000e-02 -1.3072387788327506e+00 1.2420101901855154e+00 9.2333621688460710e+00 0 0 0
5176 863 3 2.8700000000000000e-02 4.2839485234476617e+00 6.6038149815209080e-01 7.8187853578175197e+00 0 1 0
2540 424 2 -5.9880000000000000e-01 6.7460217034234660e+00 2.3666493240699724e+00 1.3062273717281574e+01 -1 -2 1
122 21 2 -5.9880000000000000e-01 4.8763238012856709e+00 -1.9795599989918626e+00 1.3430737882184930e+01 -1 4 1
676 113 3 2.8700000000000000e-02 4.0726090358133078e+00 5.6562563627991640e+00 1.7535230607796411e+01 1 -1 0
5245 875 1 1.1670000000000000e-01 -1.2426004259676127e-01 8.8283018713264791e+00 1.7691813061995649e+01 3 0 0
5246 875 2 -5.9880000000000000e-01 6.2847476828225179e-01 8.3996979313431783e+00 1.6538374473053626e+01 3 0 0
5380 897 3 2.8700000000000000e-02 -9.8800968195752437e-01 4.2311429212445217e+00 1.3446309719016421e+01 2 0 -2
3590 599 2 -5.9880000000000000e-01 6.9859957906410806e+00 -1.8200373433045716e+00 8.7370877370967595e+00 1 1 -3
3124 521 3 2.8700000000000000e-02 1.7042163334446458e+00 -1.4157090900607257e+00 9.5125145841539478e+00 -1 0 4
411 69 3 2.8700000000000000e-02 6.7249162911590830e+00 1.3211328272707838e+00 1.6352139907889498e+01 0 1 -1
392 66 2 -5.9880000000000000e-01 -8.2292767016305013e-01 -1.3776747342827518e+00 1.1375146686453954e+01 -1 -1 -1
267 45 3 2.8700000000000000e-02 9.9850861552751891e-01 2.0948412529305180e+00 1.6460897732285918e+01 -1 0 -1
266 45 2 -5.9880000000000000e-01 2.7256872490365334e+00 3.0806852087586432e+00 1.7127667415243685e+01 -1 0 -1
3080 514 2 -5.9880000000000000e-01 3.1818173506701823e+00 9.5418804268208213e+00 1.6417498441789487e+01 1 1 1
5249 875 3 2.8700000000000000e-02 -1.2189469857588533e+00 8.7382574182514734e+00 1.7556457416458777e+01 3 0 0
3084 514 4 3.9600000000000002e-01 3.9257042553468082e+00 9.1408623768745354e+00 1.5962131142398288e+01 1 1 1
5250 875 4 3.9600000000000002e-01 1.5579933919911184e+00 8.6876173997508879e+00 1.6650032236323959e+01 3 0 0
659 110 3 2.8700000000000000e-02 3.8910287871274454e+00 7.0780010023315878e+00 1.1340173605725433e+01 0 0 0
3082 514 3 2.8700000000000000e-02 3.1677747037458284e+00 1.1028945806748132e+01 1.7916496561413179e+01 1 1 1
5882 981 2 -5.9880000000000000e-01 9.3000030498361497e-01 -1.9556255689727515e+00 1.6171871480941189e+01 -2 0 2
2541 424 3 2.8700000000000000e-02 7.6117774142034023e+00 1.1740448074085288e+00 1.1689663165261432e+01 -1 -2 1
412 69 3 2.8700000000000000e-02 6.4047674200889464e+00 2.5218822854207605e+00 1.7634646878077032e+01 0 1 -1
657 110 3 2.8700000000000000e-02 5.4525112194431067e+00 7.1066335068898265e+00 1.2187828721623568e+01 0 0 0
681 114 3 2.8700000000000000e-02 3.4391391403073248e+00 1.0114999889550855e+01 9.5511296562794836e+00 -1 -2 1
5738 957 2 -5.9880000000000000e-01 1.5906581797022543e+00 9.4515326073904014e+00 1.2009931314165327e+01 1 4 2
265 45 1 1.1670000000000000e-01 1.4540588876355476e+00 2.4014006910453354e+00 1.7367202140155772e+01 -1 0 -1
5043 841 3 2.8700000000000000e-02 -7.5707273258480789e-01 5.0028856354051099e+00 1.7196047842461617e+01 2 0 -1
3593 599 3 2.8700000000000000e-02 6.4510142768367746e+00 -1.7066489476537008e+00 1.0690242687755928e+01 1 1 -3
3589 599 1 1.1670000000000000e-01 6.0615246448380695e+00 -1.3906296776505755e+00 9.7275749397971758e+00 1 1 -3
4960 827 3 2.8700000000000000e-02 6.8858491782538227e+00 1.0299422353689319e+01 1.5401979286158156e+01 1 0 2
3121 521 1 1.1670000000000000e-01 1.6898346390816830e+00 -2.4108997177953442e+00 9.2505260835630487e+00 -1 0 4
5012 836 2 -5.9880000000000000e-01 5.6323074132806212e+00 5.5972542491368156e+00 1.5325289744811894e+01 -1 2 2
3911 652 3 2.8700000000000000e-02 -2.0142941604585709e+00 1.1609320850187776e+00 1.7524293554772647e+01 1 1 1
5016 836 4 3.9600000000000002e-01 5.9444864004098861e+00 4.6899428912862966e+00 1.5670524276515867e+01 -1 2 2
1728 288 4 3.9600000000000002e-01 7.4580710444564584e+00 1.0476283131661038e+01 1.1374567894620863e+01 -1 -2 1
680 114 2 -5.9880000000000000e-01 1.4133689097755244e+00 1.0936617642775232e+01 9.6713396139840757e+00 -1 -2 1
2597 433 3 2.8700000000000000e-02 1.7819587008947435e-01 5.9028443340844667e+00 9.7459905599920607e+00 4 -2 2
683 114 3 2.8700000000000000e-02 2.1257590084072078e+00 9.1193327002563187e+00 8.8277897972424793e+00 -1 -2 1
2595 433 3 2.8700000000000000e-02 8.6597580283414244e-01 7.4149463172139356e+00 1.0313727806330176e+01 4 -2 2
4962 827 4 3.9600000000000002e-01 5.7736966233070834e+00 7.7234329233194501e+00 1.5260025892014195e+01 1 0 2
2596 433 3 2.8700000000000000e-02 -9.3445736648526623e-02 7.2975653391251623e+00 8.6770464572624189e+00 4 -2 2
1724 288 2 -5.9880000000000000e-01 6.7634105318885709e+00 1.1050903056075164e+01 1.0955303140718797e+01 -1 -2 1
656 110 2 -5.9880000000000000e-01 4.0173913992900507e+00 8.6734928064238321e+00 1.2680028583483999e+01 0 0 0
660 110 4 3.9600000000000002e-01 4.6450571283232565e+00 8.9886317281448900e+00 1.3268552633938299e+01 0 0 0
3594 599 4 3.9600000000000002e-01 6.5303355848115352e+00 -1.7005945704753493e+00 7.9034686324783259e+00 1 1 -3
658 110 3 2.8700000000000000e-02 5.1356294892722349e+00 8.1732087325477067e+00 1.0983769975961595e+01 0 0 0
5742 957 4 3.9600000000000002e-01 2.5291560345652222e+00 9.0887880797911507e+00 1.2204373581015350e+01 1 4 2
5013 836 3 2.8700000000000000e-02 4.0255740697791582e+00 6.3056083757782329e+00 1.4286359159864826e+01 -1 2 2
655 110 1 1.1670000000000000e-01 4.6551987064342146e+00 7.7255124597729008e+00 1.1829542923718856e+01 0 0 0
797 133 3 2.8700000000000000e-02 1.4044399915817118e+00 7.2245034094236136e+00 1.4073612607515855e+01 1 0 -2
794 133 2 -5.9880000000000000e-01 -3.0994519402794474e-01 6.5706803289069171e+00 1.3017505603287951e+01 1 0 -2
795 133 3 2.8700000000000000e-02 1.7066510993760602e+00 6.0705826451863576e+00 1.2713206306651909e+01 1 0 -2
679 114 1 1.1670000000000000e-01 2.4358258644180824e+00 1.0142596763853190e+01 9.0222674196612402e+00 -1 -2 1
4957 827 1 1.1670000000000000e-01 6.8333550027069414e+00 9.2083670922584862e+00 1.5546194592583102e+01 1 0 2
5739 957 3 2.8700000000000000e-02 1.9889884324520049e+00 1.0921859257965808e+01 1.3554730713843600e+01 1 4 2
4958 827 2 -5.9880000000000000e-01 5.5283353259635177e+00 8.6727964131727546e+00 1.5172083266759870e+01 1 0 2
4959 827 3 2.8700000000000000e-02 7.0141951721098525e+00 9.1366327816969832e+00 1.6628801367251423e+01 1 0 2
5014 836 3 2.8700000000000000e-02 3.8357623146273072e+00 4.7776620517932535e+00 1.5265445689910479e+01 -1 2 2
2598 433 4 3.9600000000000002e-01 -7.6243476641548380e-01 7.4649677372526941e+00 1.1448213610944450e+01 4 -2 2
2594 433 2 -5.9880000000000000e-01 -1.1835467671157793e+00 7.4084459453332219e+00 1.0516426528238206e+01 4 -2 2
92 16 2 -5.9880000000000000e-01 -1.6888651845928033e+00 7.8907637265411594e+00 1.4929791303483082e+01 0 -2 -2
3083 514 3 2.8700000000000000e-02 4.7411900978977810e+00 1.0727722535671059e+01 1.7075644325278052e+01 1 1 1
793 133 1 1.1670000000000000e-01 9.3717720068584365e-01 6.3352028329679353e+00 1.3531008587265045e+01 1 0 -2
96 16 4 3.9600000000000002e-01 -9.4914873405026712e-01 8.3207972522411691e+00 1.5435531088460245e+01 0 -2 -2
2593 433 1 1.1670000000000000e-01 -1.1215716344424642e-02 7.0011001650654308e+00 9.7279197638057369e+00 4 -2 2
798 133 4 3.9600000000000002e-01 -8.5083125819821426e-01 7.0920584860278950e+00 1.3655663617664636e+01 1 0 -2
796 133 3 2.8700000000000000e-02 9.6956847100582699e-01 5.5533347872124992e+00 1.4287057248999105e+01 1 0 -2
5741 957 3 2.8700000000000000e-02 3.0527594788433721e-01 1.0465544991348027e+01 1.3304846915387142e+01 1 4 2
5011 836 1 1.1670000000000000e-01 4.4629285282500586e+00 5.3892648139580412e+00 1.4606142410704127e+01 -1 2 2
5885 981 3 2.8700000000000000e-02 3.1177931986211327e-02 -6.0868081540698227e-01 1.4931105597178632e+01 -2 0 2
1595 266 3 2.8700000000000000e-02 7.5895720185346125e+00 5.0936178183268010e+00 1.1730882799560874e+01 0 -2 1
5015 836 3 2.8700000000000000e-02 4.5338650212080491e+00 4.7239980935673653e+00 1.3746752235775720e+01 -1 2 2
5883 981 3 2.8700000000000000e-02 1.1275271887068139e+00 1.0336717541960505e-01 1.6091556286792503e+01 -2 0 2
4219 704 1 1.1670000000000000e-01 4.7742117565793061e+00 -1.2012005774599679e+00 1.7249370415161980e+01 1 -1 -1
5740 957 3 2.8700000000000000e-02 1.4258985053780160e+00 9.5003665229375187e+00 1.4074915577283711e+01 1 4 2
4224 704 4 3.9600000000000002e-01 3.1397304014356990e+00 -1.5527564998924679e+00 1.6190685136030837e+01 1 -1 -1
4221 704 3 2.8700000000000000e-02 5.2578009378684207e+00 -2.1663454946422434e-01 1.7408901466373575e+01 1 -1 -1
5881 981 1 1.1670000000000000e-01 4.1269005931121772e-01 -6.3124916775167850e-01 1.5977844841112727e+01 -2 0 2
409 69 1 1.1670000000000000e-01 7.0364120332281672e+00 2.2775295073858315e+00 1.6785676925536084e+01 0 1 -1
5515 920 1 1.1670000000000000e-01 -2.3695709735897066e+00 1.3884741104601814e+00 9.4678806069676824e+00 0 0 0
678 113 4 3.9600000000000002e-01 2.3579245667128346e+00 4.4117150441363888e+00 1.7973929204844435e+01 1 -1 0
268 45 3 2.8700000000000000e-02 7.7803929044486209e-01 3.0576753141629212e+00 1.7956803068091450e+01 -1 0 -1
5044 841 3 2.8700000000000000e-02 -2.1782281421516192e+00 5.5507076541542641e+00 1.7999170301577688e+01 2 0 -1
269 45 3 2.8700000000000000e-02 1.6302055610174220e+00 1.5099849074273251e+00 1.7959410203292759e+01 -1 0 -1
1520 254 2 -5.9880000000000000e-01 3.7238083145129774e+00 5.8761445079200358e-01 2.5222704315115354e+01 -3 1 -1
1519 254 1 1.1670000000000000e-01 2.3499817298721419e+00 6.5239789265583692e-01 2.4824736223654480e+01 -3 1 -1
1524 254 4 3.9600000000000002e-01 4.2569283429947919e+00 1.3521939167161188e+00 2.4816948590329361e+01 -3 1 -1
1523 254 3 2.8700000000000000e-02 1.6680916902481142e+00 -1.7592716434164002e-01 2.5173775896048596e+01 -3 1 -1
1521 254 3 2.8700000000000000e-02 2.2669875172189462e+00 5.9112744082558422e-01 2.3729279693814039e+01 -3 1 -1
1522 254 3 2.8700000000000000e-02 1.9711589763190061e+00 1.5981921710635216e+00 2.5260068417169069e+01 -3 1 -1
1613 269 3 2.8700000000000000e-02 1.5214901032574781e+00 -8.7742230047227188e-01 2.7685618906456881e+01 1 2 0
1472 246 2 -5.9880000000000000e-01 -6.9350154291233479e-01 -2.0115178080484877e+00 2.0397967215716143e+01 0 4 0
4629 772 3 2.8700000000000000e-02 6.9948991211570792e+00 5.6175152693323813e+00 1.9067322392199021e+01 1 1 -1
675 113 3 2.8700000000000000e-02 3.2466757184632318e+00 7.1878917576473249e+00 1.8200604707535813e+01 1 -1 0
3806 635 2 -5.9880000000000000e-01 5.3223277239272866e+00 -2.0288665682849478e+00 2.5562371615294353e+01 0 0 1
3810 635 4 3.9600000000000002e-01 4.8921651584982264e+00 -1.1282839822917032e+00 2.5364330817819351e+01 0 0 1
1476 246 4 3.9600000000000002e-01 -1.2286919335073700e+00 -1.2921904064085241e+00 1.9948595479084890e+01 0 4 0
1471 246 1 1.1670000000000000e-01 5.4437090368068075e-01 -1.8048272843550754e+00 1.9833718131413136e+01 0 4 0
381 64 3 2.8700000000000000e-02 5.4649509465837180e+00 9.6177771286919000e+00 2.7093473099239439e+01 1 -1 0
674 113 2 -5.9880000000000000e-01 2.1549720146231222e+00 5.3488244881101545e+00 1.8260124598402239e+01 1 -1 0