TACC:  Starting up job 7723631 
TACC:  Starting parallel tasks... 
LAMMPS (7 Aug 2019)
Reading data file ...
  orthogonal box = (-2.47052 -2.47052 -2.47052) to (38.4705 38.4705 38.4705)
  3 by 4 by 4 MPI processor grid
  reading atoms ...
  6000 atoms
  reading velocities ...
  6000 velocities
  scanning bonds ...
  4 = max bonds/atom
  scanning angles ...
  6 = max angles/atom
  scanning dihedrals ...
  3 = max dihedrals/atom
  reading bonds ...
  5000 bonds
  reading angles ...
  7000 angles
  reading dihedrals ...
  3000 dihedrals
Finding 1-2 1-3 1-4 neighbors ...
  special bond factors lj:   0          0          0.5       
  special bond factors coul: 0          0          0.833333  
  4 = max # of 1-2 neighbors
  3 = max # of 1-3 neighbors
  4 = max # of 1-4 neighbors
  5 = max # of special neighbors
  special bonds CPU = 0.00612998 secs
  read_data CPU = 0.12065 secs
PPPM initialization ...
  using 12-bit tables for long-range coulomb (../kspace.cpp:323)
  G vector (1/distance) = 0.233245
  grid = 15 15 15
  stencil order = 5
  estimated absolute RMS force accuracy = 0.0337445
  estimated relative force accuracy = 0.000101621
  using double precision KISS FFT
  3d grid and FFT values/proc = 1000 90
Neighbor list info ...
  update every 1 steps, delay 10 steps, check yes
  max neighbors/atom: 2000, page size: 100000
  master list distance cutoff = 12
  ghost atom cutoff = 12
  binsize = 6, bins = 7 7 7
  1 neighbor lists, perpetual/occasional/extra = 1 0 0
  (1) pair lj/cut/coul/long, perpetual
      attributes: half, newton on
      pair build: half/bin/newton
      stencil: half/bin/3d/newton
      bin: standard
Setting up Verlet run ...
  Unit style    : real
  Current step  : 0
  Time step     : 1
Per MPI rank memory allocation (min/avg/max) = 10.82 | 10.85 | 11.2 Mbytes
Step Time Atoms Temp Press Volume TotEng E_pair E_mol E_vdwl E_coul E_long E_bond E_angle Enthalpy PotEng KinEng v_Density Lx Ly Lz CPU 
       0            0     6000    294.09796    359.34713    68624.122    5245.2127   -3821.2354    3807.4238   -1656.6294    21003.111   -23167.717    1671.5498    1826.3953    5604.8518   -13.811607    5259.0243   0.77561523    40.941046    40.941046    40.941046            0 
    1000         1000     6000    293.48625     263.1285    68624.122    5189.0728   -3799.1523    3740.1394   -1657.2442    21028.383   -23170.291     1726.768    1722.5681    5452.4151   -59.012869    5248.0857   0.77561523    40.941046    40.941046    40.941046    1.5059581 
    2000         2000     6000    295.99734   -508.50277    68624.122    5119.7571   -3813.3508    3640.1191   -1640.5944    20998.081   -23170.837    1659.1486    1678.6184    4610.8412   -173.23175    5292.9888   0.77561523    40.941046    40.941046    40.941046    3.0109632 
    3000         3000     6000    294.09316   -421.86264    68624.122    5300.7223   -3798.8149    3840.5988    -1752.442    21125.657    -23172.03    1745.1159    1771.3906    4878.5169    41.783922    5258.9384   0.77561523    40.941046    40.941046    40.941046    4.4863842 
    4000         4000     6000    290.25407   -994.37862    68624.122      5222.75   -3851.6337    3884.0954    -1675.363    20992.858   -23169.129    1798.3888    1775.3495    4227.5635    32.461699    5190.2883   0.77561523    40.941046    40.941046    40.941046    5.9810901 
    5000         5000     6000    292.35054   -44.672036    68624.122    5240.6982    -3785.797    3798.7181   -1647.0373     21024.81    -23163.57    1715.7093     1771.077    5195.9899    12.921069    5227.7771   0.77561523    40.941046    40.941046    40.941046      7.46613 
    6000         6000     6000     295.7548   -891.09407    68624.122    5285.1983   -3835.1888    3831.7354   -1681.1918    21016.143    -23170.14    1721.1838    1803.8595    4393.3802   -3.4534055    5288.6517   0.77561523    40.941046    40.941046    40.941046     8.942631 
    7000         7000     6000    295.18632   -257.67841    68624.122    5280.3884   -3804.2413    3806.1435   -1607.3203    20965.014   -23161.935      1697.51    1797.1006    5022.5006    1.9021891    5278.4862   0.77561523    40.941046    40.941046    40.941046    10.422699 
    8000         8000     6000    289.94646   -440.18481    68624.122    5125.1369   -3839.6941    3780.0434   -1668.7572    21000.752   -23171.689     1670.221    1810.2352    4684.5945   -59.650778    5184.7877   0.77561523    40.941046    40.941046    40.941046    11.919944 
    9000         9000     6000    292.76964    -212.1959    68624.122    5290.8305   -3791.3874    3846.9463   -1661.5403    21039.526   -23169.373    1720.4486    1795.8978    5078.4622    55.558987    5235.2715   0.77561523    40.941046    40.941046    40.941046    13.435585 
   10000        10000     6000    298.38746   -315.42575    68624.122    5245.7487   -3873.6391    3783.6592   -1688.2141    20985.535    -23170.96    1676.2009     1811.477    4930.0667   -89.979843    5335.7285   0.77561523    40.941046    40.941046    40.941046    14.927358 
   11000        11000     6000    301.57381    714.11758    68624.122    5366.9136   -3823.5116    3797.7188   -1677.6428    21028.448   -23174.317    1677.5593    1833.7196    6081.6114   -25.792849    5392.7065   0.77561523    40.941046    40.941046    40.941046    16.391161 
   12000        12000     6000    296.06592   -146.12436    68624.122    5225.7191   -3902.5005    3834.0046   -1692.7685    20961.217   -23170.949     1767.796    1774.3647    5079.4761   -68.495925    5294.2151   0.77561523    40.941046    40.941046    40.941046    17.891365 
   13000        13000     6000    298.02318   -227.33323    68624.122    5234.8435    -3896.786    3802.4149   -1656.9939    20929.781   -23169.573    1778.2833    1720.5127    5007.3256   -94.371151    5329.2146   0.77561523    40.941046    40.941046    40.941046    19.388896 
   14000        14000     6000    297.20316    -245.2082    68624.122     5154.413    -3912.604    3752.4659   -1647.9333    20901.996   -23166.667    1660.6198    1782.9941    4909.0056   -160.13811    5314.5511   0.77561523    40.941046    40.941046    40.941046    20.875529 
   15000        15000     6000    296.60003    569.32076    68624.122    5264.7136   -3848.0109    3808.9585   -1601.6482    20919.222   -23165.585    1734.2406    1762.2874    5834.4969   -39.052421     5303.766   0.77561523    40.941046    40.941046    40.941046    22.383224 
   16000        16000     6000    293.79482   -166.14186    68624.122    5176.0141   -3879.5558    3801.9662   -1676.6882    20964.137   -23167.004    1702.7291    1786.8811    5009.7372   -77.589578    5253.6036   0.77561523    40.941046    40.941046    40.941046    23.885306 
   17000        17000     6000     296.5708    -263.1583    68624.122    5262.2898   -3893.9109    3852.9574   -1629.3565    20903.238   -23167.793    1721.0038    1827.4105    4998.9177   -40.953488    5303.2433   0.77561523    40.941046    40.941046    40.941046    25.402073 
   18000        18000     6000    290.39362    25.543978    68624.122    5222.7503    -3816.057    3846.0236   -1656.9249    21010.024   -23169.156     1737.636    1794.6787     5248.315    29.966551    5192.7838   0.77561523    40.941046    40.941046    40.941046     26.88459 
   19000        19000     6000    298.55791    972.66456    68624.122    5202.4542   -3958.3185    3821.9961   -1611.0937    20826.926    -23174.15    1698.3746     1804.781     6175.909   -136.32238    5338.7766   0.77561523    40.941046    40.941046    40.941046    28.365442 
   20000        20000     6000    293.15969    76.866346    68624.122    5278.1973   -3870.2483    3906.1993   -1625.0133    20925.689   -23170.924    1733.3347    1868.6444    5355.1261    35.950951    5242.2463   0.77561523    40.941046    40.941046    40.941046    29.868852 
   21000        21000     6000    298.53379   -93.595111    68624.122     5391.135   -3836.2973     3889.087   -1620.8799    20958.849   -23174.266    1763.8513    1810.7132    5297.4638    52.789732    5338.3453   0.77561523    40.941046    40.941046    40.941046    31.350202 
   22000        22000     6000    303.18512   -769.29065    68624.122    5310.7954   -3894.7433    3784.0188   -1641.1696    20913.279   -23166.853    1726.3254    1763.3205    4540.8797   -110.72447    5421.5198   0.77561523    40.941046    40.941046    40.941046    32.847648 
   23000        23000     6000    292.89909    400.43853    68624.122    5113.1406   -3847.8889    3723.4432   -1688.5282    21002.667   -23162.028     1667.255    1742.8256    5513.9045   -124.44563    5237.5862   0.77561523    40.941046    40.941046    40.941046    34.378678 
   24000        24000     6000    295.81384    300.61281    68624.122    5286.7142   -3913.5602    3910.5669   -1675.6014    20933.741     -23171.7    1780.2088    1812.0767    5587.5712   -2.9932993    5289.7075   0.77561523    40.941046    40.941046    40.941046    35.880254 
   25000        25000     6000    293.07941   -527.05617    68624.122    5299.8156   -3850.0835    3909.0884    -1749.437    21068.428   -23169.074    1764.7154    1825.6755    4772.3312    59.004921    5240.8107   0.77561523    40.941046    40.941046    40.941046    37.386481 
   26000        26000     6000    292.84536    582.98279    68624.122    5186.3389   -3890.0209    3839.7343   -1621.3523    20905.578   -23174.246    1700.2734    1831.5676    5769.7953   -50.286585    5236.6254   0.77561523    40.941046    40.941046    40.941046    38.881398 
   27000        27000     6000    296.52952    434.23696    68624.122    5274.9742   -3868.2825    3840.7516   -1680.8034    20978.591    -23166.07    1729.9388    1816.5775    5709.5639   -27.530884    5302.5051   0.77561523    40.941046    40.941046    40.941046    40.380769 
   28000        28000     6000    295.82855    309.36492    68624.122    5250.5599   -3879.3127    3839.9022    -1603.725    20887.327   -23162.915    1732.8528    1822.3479    5560.1762   -39.410515    5289.9704   0.77561523    40.941046    40.941046    40.941046    41.892404 
   29000        29000     6000    298.13507   -200.58899    68624.122    5346.7044   -3911.1254    3926.6144   -1670.9494    20929.364    -23169.54    1790.4147    1831.4061    5145.9524    15.488959    5331.2154   0.77561523    40.941046    40.941046    40.941046    43.389151 
   30000        30000     6000      289.642   -108.48596    68624.122    5165.1967   -3851.1042    3836.9575   -1655.8943    20972.963   -23168.173    1717.6153    1805.9858    5056.6226   -14.146675    5179.3434   0.77561523    40.941046    40.941046    40.941046    44.889965 
   31000        31000     6000    292.46427    423.30657    68624.122    5176.3809   -3829.1901    3775.7601   -1599.4602     20937.71    -23167.44    1664.1656    1813.1769    5600.0314   -53.429954    5229.8109   0.77561523    40.941046    40.941046    40.941046    46.390279 
   32000        32000     6000    293.21167   -309.10782    68624.122    5313.8123   -3831.1162    3901.7528   -1675.8527    21015.257   -23170.521    1782.5937    1805.5096    5004.4533    70.636595    5243.1757   0.77561523    40.941046    40.941046    40.941046    47.912085 
   33000        33000     6000    291.09922    845.74988    68624.122    5072.0961   -3849.7592    3716.4541   -1611.9759    20935.561   -23173.345    1659.1754    1754.7378    5918.5331   -133.30502    5205.4012   0.77561523    40.941046    40.941046    40.941046    49.425783 
   34000        34000     6000     295.1536   -39.722395    68624.122    5159.2378   -3916.9914    3798.3281   -1657.9308     20908.72    -23167.78    1649.2706    1827.0445    5119.4832   -118.66332    5277.9011   0.77561523    40.941046    40.941046    40.941046    50.961056 
   35000        35000     6000    298.34809    774.25753    68624.122    5355.1744   -3797.9609    3818.1107   -1588.8291    20954.033   -23163.165    1705.1265    1816.2888     6130.061    20.149821    5335.0246   0.77561523    40.941046    40.941046    40.941046    52.497266 
   36000        36000     6000    296.53593    328.50382    68624.122    5210.4372   -3869.2236     3777.041   -1672.4828    20977.137   -23173.878    1694.1002    1770.3326    5539.2079   -92.182589    5302.6198   0.77561523    40.941046    40.941046    40.941046    54.010111 
   37000        37000     6000     296.9893    1587.2995    68624.122    5220.3048   -3832.5258    3742.1037   -1662.8193    20999.618   -23169.325    1637.8627    1795.2768    6808.8939   -90.422037    5310.7269   0.77561523    40.941046    40.941046    40.941046    55.510554 
   38000        38000     6000     293.3519    213.48633    68624.122    5184.9911   -3869.7281    3809.0358    -1541.887    20841.801   -23169.643     1761.747    1752.8796    5398.6508   -60.692275    5245.6833   0.77561523    40.941046    40.941046    40.941046    57.022287 
   39000        39000     6000    297.16364    170.25655    68624.122    5276.5027   -3792.3087     3754.967   -1676.2349    21044.389   -23160.463    1663.1022     1799.221    5446.8976   -37.341695    5313.8444   0.77561523    40.941046    40.941046    40.941046    58.536481 
   40000        40000     6000    297.96263    48.908073    68624.122      5213.26   -3845.9823    3731.1105   -1599.7267    20924.199   -23170.455    1681.4783     1755.424    5262.2078   -114.87179    5328.1318   0.77561523    40.941046    40.941046    40.941046    60.059033 
   41000        41000     6000    294.61134   -837.13558    68624.122    5288.4546   -3826.7521    3847.0023   -1654.7296    20996.737    -23168.76    1766.6443      1783.03    4450.6389    20.250114    5268.2045   0.77561523    40.941046    40.941046    40.941046    61.582739 
   42000        42000     6000    291.81654    1328.5761    68624.122    5243.0052   -3798.8716    3823.6486    -1724.755    21088.838   -23162.954    1726.2685    1790.4646    6572.6606    24.777009    5218.2282   0.77561523    40.941046    40.941046    40.941046    63.079397 
   43000        43000     6000    298.70336   -30.823111    68624.122    5348.5887   -3772.1322    3779.3433    -1666.947    21057.679   -23162.864    1688.3563    1777.1882    5317.7405    7.2111648    5341.3775   0.77561523    40.941046    40.941046    40.941046    64.580065 
   44000        44000     6000    292.64526    453.72155    68624.122    5098.3923   -3842.9034    3708.2484   -1609.0524    20933.078   -23166.929    1708.4436     1702.497    5552.4825   -134.65503    5233.0473   0.77561523    40.941046    40.941046    40.941046    66.047336 
   45000        45000     6000    298.42492    551.91679    68624.122    5220.9423    -3880.038    3764.5819   -1609.4943    20894.465   -23165.009    1682.0349    1779.4274    5773.3074   -115.45613    5336.3984   0.77561523    40.941046    40.941046    40.941046    67.513378 
   46000        46000     6000    296.72175   -333.32435    68624.122    5283.8557   -3849.6355    3827.5487   -1636.1934    20951.799   -23165.241    1735.5127    1782.8226    4950.2606    -22.08686    5305.9426   0.77561523    40.941046    40.941046    40.941046    69.005798 
   47000        47000     6000    294.56027     1063.573    68624.122    5285.4512   -3792.7854    3810.9453   -1663.6854    21041.555   -23170.655    1737.7341    1780.1404    6349.8883    18.159862    5267.2913   0.77561523    40.941046    40.941046    40.941046    70.496388 
   48000        48000     6000    294.55567    24.119346    68624.122     5154.039   -3878.7005    3765.5304   -1671.9924    20962.781   -23169.489    1700.7542    1758.2989    5178.1779   -113.17012    5267.2091   0.77561523    40.941046    40.941046    40.941046    72.011563 
   49000        49000     6000    298.54083    260.17704    68624.122    5367.4975   -3818.7857     3847.812   -1623.1653    20970.124   -23165.745     1761.496    1789.7896    5627.8859    29.026297    5338.4712   0.77561523    40.941046    40.941046    40.941046    73.535846 
   50000        50000     6000    292.87801    239.47606    68624.122    5233.5655   -3846.8537    3843.2099   -1650.9902    20969.809   -23165.672    1713.5162    1815.9699    5473.2361   -3.6437581    5237.2092   0.77561523    40.941046    40.941046    40.941046    75.063787 
   51000        51000     6000     293.8844    913.95374    68624.122    5321.9725   -3766.6523    3833.4193    -1689.649    21091.446   -23168.449    1693.2439    1827.8749    6236.6687    66.766957    5255.2055   0.77561523    40.941046    40.941046    40.941046    76.576397 
   52000        52000     6000    291.28925    27.541608    68624.122    5115.6077   -3812.2738    3719.0822   -1665.2199    21018.327   -23165.381    1704.2964    1723.2557    5143.1716   -93.191554    5208.7992   0.77561523    40.941046    40.941046    40.941046    78.086166 
   53000        53000     6000    297.76873    504.85391    68624.122    5364.8528   -3786.1516    3826.3398   -1669.8589    21055.242   -23171.534    1701.6649    1801.8933    5870.1169    40.188278    5324.6645   0.77561523    40.941046    40.941046    40.941046    79.615166 
   54000        54000     6000    298.76002    1695.1732    68624.122    5329.0969   -3770.2035    3756.9097   -1627.8526    21026.833   -23169.183    1661.3216    1785.3942    7025.6474   -13.293739    5342.3907   0.77561523    40.941046    40.941046    40.941046    81.128135 
   55000        55000     6000    288.29286    -205.6681    68624.122    5044.5682   -3930.1311    3819.4812   -1595.8108    20839.994   -23174.314     1726.092     1777.429    4838.7331   -110.64991    5155.2182   0.77561523    40.941046    40.941046    40.941046    82.647077 
   56000        56000     6000    298.60121    90.632336    68624.122    5249.3367   -3864.9212    3774.7071   -1657.4657    20961.245   -23168.701    1715.2128    1771.5191    5340.0427    -90.21413    5339.5508   0.77561523    40.941046    40.941046    40.941046    84.158816 
   57000        57000     6000    301.04027   -568.73017    68624.122    5368.5187   -3861.2093    3846.5621   -1659.2667    20968.045   -23169.987    1722.0939    1805.7093    4799.3265    -14.64712    5383.1658   0.77561523    40.941046    40.941046    40.941046    85.667991 
   58000        58000     6000    296.50645   -343.64569    68624.122    5241.1887   -3848.4154    3787.5116   -1729.1495    21056.306   -23175.572    1692.5112    1777.9158    4897.2638   -60.903871    5302.0926   0.77561523    40.941046    40.941046    40.941046    87.216035 
   59000        59000     6000    293.89821    187.50077    68624.122    5232.7306   -3802.8407    3780.1189   -1629.7501    20990.302   -23163.392    1696.8843    1784.7117    5420.3837   -22.721803    5255.4524   0.77561523    40.941046    40.941046    40.941046    88.769228 
   60000        60000     6000    293.22422   -516.35253    68624.122    5292.2064   -3817.9981    3866.8042   -1668.4073    21016.614   -23166.205    1744.6115    1804.5828    4775.4343    48.806131    5243.4002   0.77561523    40.941046    40.941046    40.941046    90.341091 
   61000        61000     6000    297.29875   -216.35204    68624.122    5205.9236   -3859.6786    3749.3417   -1622.4899    20933.657   -23170.845     1708.975     1719.978    4989.3958   -110.33691    5316.2605   0.77561523    40.941046    40.941046    40.941046     91.83392 
   62000        62000     6000    295.39471    530.13209    68624.122    5249.9599   -3836.0856    3803.8328   -1563.6878     20896.05   -23168.448    1735.9593    1766.6396    5780.5227   -32.252752    5282.2127   0.77561523    40.941046    40.941046    40.941046    93.346554 
   63000        63000     6000    291.70233    941.02662    68624.122    5181.3875   -3813.5079    3778.7095   -1685.3141    21037.848   -23166.042    1670.2062    1807.1605    6123.1786   -34.798455     5216.186   0.77561523    40.941046    40.941046    40.941046    94.851412 
   64000        64000     6000    298.77834   -30.894988    68624.122    5223.0989   -3891.9012    3772.2819   -1674.9976    20956.005   -23172.909    1696.8647    1768.8266    5192.1788   -119.61934    5342.7182   0.77561523    40.941046    40.941046    40.941046     96.33897 
   65000        65000     6000    295.89575   -809.60732    68624.122    5231.5168   -3880.0212     3820.366    -1648.264    20930.602    -23162.36    1733.7931    1778.7471    4421.2518   -59.655213    5291.1721   0.77561523    40.941046    40.941046    40.941046    97.824907 
   66000        66000     6000    289.28974   -130.70081    68624.122    5115.3765   -3851.2096    3793.5419   -1717.7698    21035.103   -23168.543    1709.5312    1789.9779    4984.5695   -57.667745    5173.0442   0.77561523    40.941046    40.941046    40.941046    99.344594 
   67000        67000     6000    296.40845    493.91461    68624.122    5319.6435   -3792.4234    3811.7268   -1672.0005    21043.668   -23164.091    1700.6249    1803.0797    5813.9594     19.30338    5300.3401   0.77561523    40.941046    40.941046    40.941046     100.8741 
   68000        68000     6000    295.63575   -436.92927    68624.122    5244.4429   -3822.8333    3780.7534   -1681.1608    21024.544   -23166.216    1679.3225    1783.5268    4807.1587   -42.079929    5286.5229   0.77561523    40.941046    40.941046    40.941046    102.40174 
   69000        69000     6000    296.34873   -296.43193    68624.122    5257.0023   -3779.5015    3737.2315   -1626.8048    21012.656   -23165.353    1668.1421    1778.2439    4960.3296   -42.269975    5299.2723   0.77561523    40.941046    40.941046    40.941046    103.92661 
   70000        70000     6000    292.66654     66.04562    68624.122    5285.9123   -3780.1633    3832.6479   -1655.6949    21046.176   -23170.644    1705.3419    1834.4587    5352.0116    52.484608    5233.4277   0.77561523    40.941046    40.941046    40.941046     105.4159 
   71000        71000     6000    292.69033    1445.5904    68624.122     5178.215   -3826.3374    3770.6992   -1645.4554    20984.421   -23165.303    1689.9063    1769.8136    6624.9799   -55.638214    5233.8532   0.77561523    40.941046    40.941046    40.941046    106.90628 
   72000        72000     6000     291.8644    405.71686    68624.122    5236.9763   -3806.4962    3824.3885   -1641.0683    21004.513   -23169.941    1721.3775    1801.8347    5643.0227    17.892283     5219.084   0.77561523    40.941046    40.941046    40.941046    108.41619 
   73000        73000     6000    291.04453   -685.64232    68624.122    5228.8952   -3778.4786    3802.9506   -1705.1831    21092.524   -23165.819    1703.9194    1782.2582    4542.6959    24.472029    5204.4232   0.77561523    40.941046    40.941046    40.941046    109.91772 
   74000        74000     6000    292.28984    239.33966    68624.122    5168.5385   -3825.4816    3767.3284   -1680.1181    21025.505   -23170.868    1705.5901    1744.9616    5408.0726    -58.15326    5226.6918   0.77561523    40.941046    40.941046    40.941046    111.44119 
   75000        75000     6000    293.70444    275.74815    68624.122    5252.9507   -3791.3821    3792.3453   -1636.7208    21008.773   -23163.434    1730.7224     1765.618    5528.9229   0.96320014    5251.9875   0.77561523    40.941046    40.941046    40.941046     112.9686 
   76000        76000     6000    298.54745    760.18425    68624.122      5320.86   -3826.4139    3808.6844   -1618.1331    20962.904   -23171.185    1717.0793    1785.0653    6081.6618   -17.729502    5338.5895   0.77561523    40.941046    40.941046    40.941046    114.50361 
   77000        77000     6000    294.63977    632.44261    68624.122     5226.796    -3802.324    3760.4073   -1619.5269    20980.135   -23162.932    1732.0373    1724.2796    5859.7525   -41.916752    5268.7128   0.77561523    40.941046    40.941046    40.941046    116.06135 
   78000        78000     6000    296.62144    76.826885    68624.122    5305.7656   -3831.1543     3832.771   -1664.1669    21004.991   -23171.979    1676.7516    1840.6188    5382.6549    1.6167255    5304.1489   0.77561523    40.941046    40.941046    40.941046    117.62005 
   79000        79000     6000    294.83002   -263.09774    68624.122     5234.379   -3872.1089    3834.3731   -1697.5539    20993.209   -23167.764     1694.351     1833.348    4971.0675   -37.735821    5272.1148   0.77561523    40.941046    40.941046    40.941046    119.15722 
   80000        80000     6000    286.71973   -297.11801    68624.122    5210.8526   -3766.3219    3850.0869   -1710.1452    21111.542   -23167.719    1705.6361    1844.8397    4913.4933    83.765015    5127.0876   0.77561523    40.941046    40.941046    40.941046    120.64339 
   81000        81000     6000    293.26086   -280.88528    68624.122    5365.2703   -3760.0124    3881.2272   -1693.4463    21098.216   -23164.782     1729.283     1827.714    5084.1568    121.21488    5244.0554   0.77561523    40.941046    40.941046    40.941046    122.20058 
   82000        82000     6000    295.50247    535.88915    68624.122    5148.1245   -3797.9065    3661.8914   -1676.1412    21040.647   -23162.412    1648.7561    1708.3954     5684.449   -136.01507    5284.1395   0.77561523    40.941046    40.941046    40.941046    123.73347 
   83000        83000     6000    298.04232    1252.2757    68624.122    5455.3274   -3753.2115     3878.982    -1635.689    21047.082   -23164.605    1729.8008    1821.0667    6708.6205    125.77046    5329.5569   0.77561523    40.941046    40.941046    40.941046    125.23147 
   84000        84000     6000    291.24651   -1009.4964    68624.122    5202.9454   -3824.9302    3819.8407   -1662.4668     21010.61   -23173.073    1731.0556    1769.6967    4192.6289   -5.0895415    5208.0349   0.77561523    40.941046    40.941046    40.941046    126.76451 
   85000        85000     6000    291.83675   -436.75117    68624.122    5225.0861   -3806.5543    3813.0508   -1625.1364    20982.539   -23163.957    1723.3933    1772.4179    4787.9801    6.4965057    5218.5896   0.77561523    40.941046    40.941046    40.941046    128.29439 
   86000        86000     6000    295.09832   -934.96495    68624.122    5212.4159   -3900.5963    3836.0996   -1601.7249    20869.553   -23168.424    1743.4654     1789.336    4276.6913   -64.496747    5276.9126   0.77561523    40.941046    40.941046    40.941046    129.83807 
   87000        87000     6000    293.32548   -584.52885    68624.122    5169.3101   -3856.2784    3780.3775    -1697.236    21012.029   -23171.071    1679.7037    1782.1636    4584.3063   -75.900897     5245.211   0.77561523    40.941046    40.941046    40.941046    131.36273 
   88000        88000     6000    294.89175    429.22498    68624.122    5272.5656   -3816.7438    3816.0907   -1564.4827    20919.486   -23171.747     1698.984    1812.7387    5702.1393  -0.65313372    5273.2187   0.77561523    40.941046    40.941046    40.941046    132.84764 
   89000        89000     6000    296.35438   -584.32773    68624.122    5267.9869   -3782.8607    3751.4743   -1658.8562    21048.303   -23172.308    1674.1092    1775.6298    4683.1844   -31.386417    5299.3733   0.77561523    40.941046    40.941046    40.941046    134.36478 
   90000        90000     6000    298.19085   -232.08313    68624.122    5319.5418    -3852.619    3839.9479   -1623.0824    20939.201   -23168.738     1772.534    1761.9474    5087.2701   -12.671095    5332.2129   0.77561523    40.941046    40.941046    40.941046    135.86347 
   91000        91000     6000    299.52018    48.385419    68624.122     5321.358   -3861.1195    3826.4938   -1673.5962    20981.692   -23169.215    1745.8553    1772.0649    5369.7827   -34.625719    5355.9837   0.77561523    40.941046    40.941046    40.941046    137.34595 
   92000        92000     6000    292.75531   -179.25375    68624.122    5211.8332   -3839.1492    3815.9674   -1668.0958    20998.667    -23169.72    1736.6757    1772.8198    5032.4339   -23.181881    5235.0151   0.77561523    40.941046    40.941046    40.941046    138.84461 
   93000        93000     6000    292.22215   -283.01322    68624.122    5214.8211    -3824.665    3814.0049    -1606.864    20949.653   -23167.454    1708.9179    1800.8196     4931.578   -10.660093    5225.4812   0.77561523    40.941046    40.941046    40.941046    140.34227 
   94000        94000     6000    297.40193   -162.88341    68624.122    5343.8158   -3791.5765    3817.2868   -1588.0455    20959.913   -23163.444     1714.808    1775.6052    5180.8001    25.710264    5318.1055   0.77561523    40.941046    40.941046    40.941046    141.85969 
   95000        95000     6000      294.142    293.47958    68624.122      5256.02    -3782.835    3779.0432   -1661.0566    21047.684   -23169.462    1694.4048    1786.1762     5549.738   -3.7918556    5259.8119   0.77561523    40.941046    40.941046    40.941046    143.39703 
   96000        96000     6000    297.45992    726.20342    68624.122    5316.5649   -3828.7751    3826.1975   -1660.4236    21002.476   -23170.828    1697.7124    1804.1116    6043.3583   -2.5776516    5319.1425   0.77561523    40.941046    40.941046    40.941046    144.91476 
   97000        97000     6000    292.80098    435.74559    68624.122    5225.7483   -3825.2946    3815.2111   -1674.0355    21017.125   -23168.384    1727.0957    1783.0273    5661.8479   -10.083442    5235.8318   0.77561523    40.941046    40.941046    40.941046    146.43599 
   98000        98000     6000    296.88246    58.965706    68624.122    5263.6374   -3862.6681    3817.4891   -1639.9285     20944.76     -23167.5    1714.7116    1773.5369     5322.651   -45.178947    5308.8163   0.77561523    40.941046    40.941046    40.941046    147.96707 
   99000        99000     6000    295.63202 -0.0086700467    68624.122    5348.1196   -3772.5606    3834.2239   -1661.9465    21053.112   -23163.726    1739.0334    1799.4715    5348.1109    61.663359    5286.4562   0.77561523    40.941046    40.941046    40.941046    149.49096 
  100000       100000     6000    294.60852   -383.18265    68624.122     5220.668   -3865.7149    3818.2288   -1647.3193    20955.849   -23174.244    1697.4973    1811.3236    4837.1741   -47.486068    5268.1541   0.77561523    40.941046    40.941046    40.941046    151.00527 
  101000       101000     6000    296.96184    1087.0231    68624.122    5358.4183   -3785.1052    3833.2876   -1666.8026    21054.559   -23172.861    1701.9217    1812.7821    6446.3246     48.18247    5310.2358   0.77561523    40.941046    40.941046    40.941046    152.54587 
  102000       102000     6000    289.56003    -358.7437    68624.122    5226.0193   -3809.6851    3857.8268   -1667.3034     21026.02   -23168.402    1709.4312     1831.643    4866.9842    48.141689    5177.8776   0.77561523    40.941046    40.941046    40.941046    154.07444 
  103000       103000     6000    291.07966    564.19618    68624.122    5241.5422   -3804.9024    3841.3932   -1677.5205    21045.107   -23172.489    1739.2118    1793.6145    5806.1967    36.490825    5205.0513   0.77561523    40.941046    40.941046    40.941046    155.59709 
  104000       104000     6000    292.78171     824.0234    68624.122    5153.9404   -3856.3969    3774.8501   -1603.4531     20914.38   -23167.324    1694.7654    1774.8009    5978.6333   -81.546885    5235.4873   0.77561523    40.941046    40.941046    40.941046    157.10358 
  105000       105000     6000    297.33575    236.28004    68624.122    5316.0003   -3856.0589    3855.1372   -1649.2416    20960.437   -23167.254    1746.3797    1799.7058    5552.4723  -0.92167687     5316.922   0.77561523    40.941046    40.941046    40.941046    158.59248 
  106000       106000     6000    296.01986   -65.139776    68624.122    5187.2842   -3885.0487    3778.9414   -1688.9651     20972.95   -23169.034    1719.0157    1749.0938    5122.0915   -106.10724    5293.3915   0.77561523    40.941046    40.941046    40.941046    160.11848 
  107000       107000     6000    293.33366   -351.65525    68624.122     5138.258   -3883.1671     3776.068   -1710.4014    20998.766   -23171.532    1697.3734    1780.8103    4786.3171   -107.09907    5245.3571   0.77561523    40.941046    40.941046    40.941046    161.64812 
  108000       108000     6000    290.94383   -136.40314    68624.122    5191.8507    -3887.513    3876.7412    -1646.049    20925.733   -23167.197    1722.8618    1831.7837    5055.3367   -10.771742    5202.6224   0.77561523    40.941046    40.941046    40.941046    163.16257 
  109000       109000     6000    293.25078   -217.37834    68624.122    5236.2936   -3875.0378    3867.4562   -1639.7954    20934.368    -23169.61    1739.6682    1820.6245    5018.7386   -7.5815896    5243.8752   0.77561523    40.941046    40.941046    40.941046    164.68901 
  110000       110000     6000    297.33426   -5.8676892    68624.122    5154.9956   -3911.5043    3749.6044   -1586.6866    20838.251   -23163.068    1736.6399    1709.3329    5149.1231   -161.89993    5316.8955   0.77561523    40.941046    40.941046    40.941046     166.1991 
  111000       111000     6000    293.46346   -447.83867    68624.122    5288.0564   -3836.8641    3877.2422   -1596.6351    20928.728   -23168.957     1773.561    1804.9205    4839.8539    40.378108    5247.6783   0.77561523    40.941046    40.941046    40.941046    167.70101 
  112000       112000     6000     287.7567   -221.72186    68624.122     5155.178   -3826.8052    3836.3525   -1656.7027    21003.059   -23173.161    1735.7969    1793.9373     4933.276    9.5473309    5145.6307   0.77561523    40.941046    40.941046    40.941046     169.2191 
  113000       113000     6000    294.95559    170.51576    68624.122    5236.3644   -3795.6648    3757.6688   -1746.5718    21120.681   -23169.774    1691.6737     1741.861    5407.0187   -37.995931    5274.3603   0.77561523    40.941046    40.941046    40.941046     170.7225 
  114000       114000     6000    296.96126    545.04768    68624.122    5218.3671   -3818.0992    3726.2408   -1689.6599    21038.016   -23166.455    1680.5669      1742.42    5763.8575   -91.858442    5310.2255   0.77561523    40.941046    40.941046    40.941046    172.23519 
  115000       115000     6000    294.07958   -1006.4607    68624.122     5295.747   -3773.1492    3810.2005   -1622.5336    21011.305    -23161.92    1717.1854    1797.9174    4288.4686    37.051336    5258.6956   0.77561523    40.941046    40.941046    40.941046    173.75058 
  116000       116000     6000    292.58082   -403.65885    68624.122    5320.6255   -3771.1467    3859.8772    -1633.897    21034.122   -23171.371    1767.1192     1775.895    4916.6387    88.730514     5231.895   0.77561523    40.941046    40.941046    40.941046    175.23348 
  117000       117000     6000    295.35871    1136.7142    68624.122     5323.078   -3787.2139    3828.7231   -1573.1349    20948.471    -23162.55    1729.3511    1806.2671    6460.7157    41.509149    5281.5689   0.77561523    40.941046    40.941046    40.941046    176.72272 
  118000       118000     6000    291.84025   -220.32248    68624.122    5131.8352   -3819.8234    3733.0064   -1672.3373     21022.04   -23169.526    1693.0804    1744.1276    4911.3337   -86.816916    5218.6521   0.77561523    40.941046    40.941046    40.941046    178.23288 
  119000       119000     6000    294.31114   -249.66295    68624.122    5299.0088   -3813.9245    3850.0969   -1659.7926    21011.909   -23166.041    1700.5202    1841.1997     5049.143     36.17245    5262.8364   0.77561523    40.941046    40.941046    40.941046    179.75582 
  120000       120000     6000    294.42685   -860.75958    68624.122    5216.3815   -3888.4068    3839.8829   -1664.2617    20946.115   -23170.261    1771.5136    1779.4188    4354.9226   -48.523971    5264.9055   0.77561523    40.941046    40.941046    40.941046    181.28915 
  121000       121000     6000     291.9226    742.17866    68624.122    5132.0015   -3837.9443    3749.8211   -1578.5388    20910.482   -23169.888    1700.3066    1743.7802    5874.7831   -88.123196    5220.1247   0.77561523    40.941046    40.941046    40.941046     182.7941 
  122000       122000     6000    295.74301    95.981859    68624.122    5306.8271    -3835.885    3854.2711   -1718.9399    21052.285    -23169.23    1740.5031    1799.3627    5402.8869    18.386116    5288.4409   0.77561523    40.941046    40.941046    40.941046    184.28397 
  123000       123000     6000    292.40921    367.75506    68624.122    5152.0553    -3823.334     3746.563   -1606.5139    20950.739   -23167.559    1722.2745    1734.5977    5520.1092   -76.770965    5228.8263   0.77561523    40.941046    40.941046    40.941046    185.79269 
  124000       124000     6000    293.40858    346.02906    68624.122    5148.4675   -3899.4969    3801.2675   -1603.4727    20877.311   -23173.335    1732.1203    1767.4582    5494.7776   -98.229443    5246.6969   0.77561523    40.941046    40.941046    40.941046    187.31345 
  125000       125000     6000    295.44031   -177.22003    68624.122    5259.7345   -3833.0225    3809.7289   -1640.8441    20973.926   -23166.104    1713.5517    1789.5512    5082.3705    -23.29354    5283.0281   0.77561523    40.941046    40.941046    40.941046    188.80436 
  126000       126000     6000    290.60821   -463.84065    68624.122    5233.6898   -3794.2813      3831.35   -1653.8694     21028.82   -23169.232    1709.3516    1803.9251    4769.4723    37.068717    5196.6211   0.77561523    40.941046    40.941046    40.941046    190.31006 
  127000       127000     6000    290.20164    1137.0192    68624.122    5166.4121   -3787.1233    3764.1847    -1562.866    20943.774   -23168.032    1673.8042    1790.0401     6304.355   -22.938592    5189.3507   0.77561523    40.941046    40.941046    40.941046    191.84006 
  128000       128000     6000    296.08744    60.262192    68624.122    5362.9668   -3753.3324    3821.6993   -1702.9526    21110.256   -23160.635    1693.5324    1812.0619     5423.278    68.366912    5294.5999   0.77561523    40.941046    40.941046    40.941046    193.35138 
  129000       129000     6000    295.15459    587.97424    68624.122    5139.4589   -3922.7492    3784.2893    -1692.954    20935.049   -23164.844    1749.1427    1749.6048    5727.9108   -138.45984    5277.9188   0.77561523    40.941046    40.941046    40.941046    194.86334 
  130000       130000     6000    296.84591   -481.16373    68624.122    5431.6406    -3738.772    3862.2498   -1752.2522    21177.847   -23164.367    1736.9909    1815.9662     4950.086    123.47784    5308.1628   0.77561523    40.941046    40.941046    40.941046     196.3654 
  131000       131000     6000    296.46616    1437.6143    68624.122    5301.0148   -3785.2851    3784.9278   -1657.8811      21038.5   -23165.904    1686.4862    1789.1513    6739.7971  -0.35734728    5301.3722   0.77561523    40.941046    40.941046    40.941046    197.88397 
  132000       132000     6000    296.57494   -229.56977    68624.122    5333.1164   -3763.2396    3793.0387   -1726.0511    21127.707   -23164.896    1726.5387     1785.163    5103.3601    29.799042    5303.3174   0.77561523    40.941046    40.941046    40.941046    199.39448 
  133000       133000     6000    290.96317    210.54037    68624.122    5174.1187   -3882.5754    3853.7258   -1676.9263     20961.17   -23166.819    1720.1896    1825.2848    5384.8301   -28.849607    5202.9683   0.77561523    40.941046    40.941046    40.941046    200.90982 
  134000       134000     6000    291.40516   -421.74242    68624.122    5211.0285   -3849.2339    3849.3903   -1657.6121    20976.439   -23168.061    1716.3918    1833.1288    4788.9434   0.15648659     5210.872   0.77561523    40.941046    40.941046    40.941046    202.42804 
  135000       135000     6000    293.76455    623.90667    68624.122    5283.5234   -3812.8863    3843.3473   -1653.0658    21008.343   -23168.164    1705.3169    1838.9753    5907.9369    30.461073    5253.0623   0.77561523    40.941046    40.941046    40.941046    203.93072 
  136000       136000     6000    300.01222    102.66818    68624.122    5433.4342   -3797.5103    3866.1622   -1702.4904    21067.278   -23162.298    1696.0186    1845.7194    5536.1858    68.651929    5364.7823   0.77561523    40.941046    40.941046    40.941046    205.41782 
  137000       137000     6000    293.85241    285.34201    68624.122    5159.5202   -3878.7632      3783.65   -1677.0323    20969.965   -23171.695    1713.6918    1759.2107     5445.094   -95.113247    5254.6335   0.77561523    40.941046    40.941046    40.941046    206.92769 
  138000       138000     6000    296.77665    959.31996    68624.122    5258.7353   -3839.7733    3791.5843   -1568.1326    20898.139    -23169.78    1713.4036    1763.0476    6218.8347   -48.188968    5306.9243   0.77561523    40.941046    40.941046    40.941046    208.47269 
  139000       139000     6000    291.23669    1134.3335    68624.122    5109.8786   -3864.6186    3766.6378   -1632.5804    20935.015   -23167.053    1695.5664    1763.6803    6245.1336   -97.980809    5207.8594   0.77561523    40.941046    40.941046    40.941046     210.0021 
  140000       140000     6000    296.96433   -590.70099    68624.122    5292.6627   -3862.6742    3845.0565    -1683.953     20988.13   -23166.851    1760.5562     1768.489    4701.4818   -17.617679    5310.2804   0.77561523    40.941046    40.941046    40.941046    211.55012 
  141000       141000     6000    293.16512    24.940453    68624.122    5129.9976   -3872.2422    3759.8963    -1657.086    20947.055   -23162.211    1652.4893     1805.447    5154.9583   -112.34583    5242.3434   0.77561523    40.941046    40.941046    40.941046    213.05193 
  142000       142000     6000    299.37614   -131.17774    68624.122    5408.3894   -3791.6164    3846.5977   -1647.7574     21024.52   -23168.379    1735.9575    1794.4136    5277.1051    54.981324    5353.4081   0.77561523    40.941046    40.941046    40.941046    214.58151 
  143000       143000     6000    297.25571    620.77031    68624.122    5193.5368    -3885.125    3763.1711   -1715.1753    21002.412   -23172.362    1669.0709    1808.5159    5814.8114   -121.95395    5315.4908   0.77561523    40.941046    40.941046    40.941046    216.09194 
  144000       144000     6000      295.008   -365.97739    68624.122    5222.4479   -3842.8567     3790.007   -1686.1129     21013.34   -23170.084    1716.6001    1778.2439    4856.1732    -52.84966    5275.2976   0.77561523    40.941046    40.941046    40.941046    217.58881 
  145000       145000     6000    291.77849   -200.18878    68624.122    5188.1999    -3892.699    3863.3512   -1707.6088    20981.822   -23166.912    1788.6753    1771.6733    4987.8485   -29.347834    5217.5477   0.77561523    40.941046    40.941046    40.941046    219.09048 
  146000       146000     6000    294.53517      677.313    68624.122    5346.1851   -3815.1844    3894.5271   -1638.4916    20986.057   -23162.749    1716.7453    1867.0702    6024.0484    79.342724    5266.8424   0.77561523    40.941046    40.941046    40.941046    220.62041 
  147000       147000     6000     296.2321   -41.859986    68624.122    5320.4923   -3844.5894    3867.8951    -1631.717    20952.304   -23165.176    1755.2886    1804.2279    5278.5983    23.305691    5297.1866   0.77561523    40.941046    40.941046    40.941046    222.13664 
  148000       148000     6000     295.7305    243.23195    68624.122    5152.1477   -3883.6695    3747.6001   -1628.3519    20913.597   -23168.915    1637.1264    1814.4155    5395.5772   -136.06944    5288.2171   0.77561523    40.941046    40.941046    40.941046    223.67491 
  149000       149000     6000    297.52141   -747.93618    68624.122    5277.0781   -3908.5469     3865.383   -1701.7999    20961.621   -23168.368    1724.1785    1839.3607    4528.5343   -43.163894     5320.242   0.77561523    40.941046    40.941046    40.941046    225.18741 
  150000       150000     6000    298.36813    872.16577    68624.122    5369.7445   -3823.4666    3857.8281    -1626.189    20969.216   -23166.493    1711.1543    1839.8921    6242.6188    34.361525     5335.383   0.77561523    40.941046    40.941046    40.941046    226.69472 
  151000       151000     6000    295.05958   -122.76751    68624.122    5167.5325   -3849.1465    3740.4591   -1716.7922    21032.361   -23164.715    1663.9297     1765.672    5044.6652   -108.68733    5276.2198   0.77561523    40.941046    40.941046    40.941046    228.20358 
  152000       152000     6000    294.59018   -1327.1251    68624.122    5223.8013   -3829.3154    3785.2906   -1690.2706    21032.773   -23171.818    1724.6106    1767.1185    3895.5981   -44.024781    5267.8261   0.77561523    40.941046    40.941046    40.941046    229.72744 
  153000       153000     6000    293.70731   -335.31826    68624.122    5248.2672   -3838.8616    3835.0901   -1652.3692    20980.579   -23167.071    1724.2256    1801.6929    4912.6765   -3.7715022    5252.0387   0.77561523    40.941046    40.941046    40.941046     231.2273 
  154000       154000     6000    293.78428   -641.43742    68624.122    5311.0972   -3826.7842    3884.4662   -1621.9954    20959.749   -23164.538    1754.7541    1826.1149    4669.1386    57.682052    5253.4151   0.77561523    40.941046    40.941046    40.941046    232.75571 
  155000       155000     6000    295.09974    16.265983    68624.122    5224.2138   -3879.6168    3826.8925   -1657.5436    20950.036   -23172.109    1735.9838     1782.023     5240.493    -52.72424     5276.938   0.77561523    40.941046    40.941046    40.941046    234.25598 
  156000       156000     6000    298.66511    668.60817    68624.122    5270.8119   -3836.7666    3766.8849   -1614.3483    20949.079   -23171.497     1675.684    1789.8138    5939.9633   -69.881688    5340.6936   0.77561523    40.941046    40.941046    40.941046    235.79209 
  157000       157000     6000    293.75809    147.19415    68624.122    5154.8557   -3869.2831     3771.192   -1727.7779    21031.307   -23172.813    1664.8971    1789.5321    5302.1694   -98.091124    5252.9468   0.77561523    40.941046    40.941046    40.941046    237.31805 
  158000       158000     6000    296.09038    464.01625    68624.122    5181.7856   -3861.4962    3748.6293   -1677.8784     20979.86   -23163.478    1672.4178    1759.8878    5646.1788   -112.86694    5294.6525   0.77561523    40.941046    40.941046    40.941046    238.83635 
  159000       159000     6000    296.82851    561.24208    68624.122    5284.8937   -3796.8285    3773.8706      -1599.6    20971.224   -23168.453     1699.372    1774.7584    5846.5917   -22.957881    5307.8516   0.77561523    40.941046    40.941046    40.941046    240.32324 
  160000       160000     6000    294.54057    71.804544    68624.122    5284.5156   -3853.5731    3871.1497   -1646.6518     20957.52   -23164.441    1743.4859    1818.0562    5356.3785    17.576643     5266.939   0.77561523    40.941046    40.941046    40.941046    241.82207 
  161000       161000     6000    292.42196   -893.30229    68624.122    5273.8019   -3800.4723      3845.22   -1652.0606    21015.514   -23163.925    1740.0826    1812.5399    4379.7738    44.747715    5229.0542   0.77561523    40.941046    40.941046    40.941046    243.32763 
  162000       162000     6000    287.71107   -122.07238    68624.122    5271.4208   -3767.0004    3893.6064   -1695.3737    21094.193   -23165.819    1751.2613    1853.2627    5149.2493    126.60607    5144.8147   0.77561523    40.941046    40.941046    40.941046    244.83395 
  163000       163000     6000    291.36619    608.16269    68624.122    5150.0729   -3839.6177    3779.5155   -1651.4408    20981.926   -23170.103     1678.371    1821.4641    5758.7297   -60.102238    5210.1751   0.77561523    40.941046    40.941046    40.941046    246.33004 
  164000       164000     6000    299.93634    139.20353    68624.122     5279.352   -3853.0532    3768.9797   -1624.7664     20941.04   -23169.326    1726.7086    1750.3958    5418.6686    -84.07352    5363.4255   0.77561523    40.941046    40.941046    40.941046    247.85384 
  165000       165000     6000     292.5188     694.8187    68624.122    5158.5125   -3819.9284     3747.655   -1652.7445    20996.775   -23163.959    1688.1295     1748.167    5853.8957   -72.273461     5230.786   0.77561523    40.941046    40.941046    40.941046    249.33307 
  166000       166000     6000    288.53206    144.15107    68624.122    5303.2988    -3746.023    3889.8264   -1657.9576    21078.441   -23166.507    1745.4074    1838.1237    5447.5669    143.80332    5159.4954   0.77561523    40.941046    40.941046    40.941046    250.82804 
  167000       167000     6000    298.97319    633.43272    68624.122    5364.9643   -3786.0303    3804.7921   -1644.0571    21024.495   -23166.468    1745.1034    1756.0856    5998.9116    18.761777    5346.2025   0.77561523    40.941046    40.941046    40.941046    252.34888 
  168000       168000     6000    293.27094     733.3332    68624.122    5270.2663   -3820.5411    3846.5718   -1590.8973     20940.64   -23170.284    1706.2132    1826.2431    6004.1952    26.030735    5244.2355   0.77561523    40.941046    40.941046    40.941046    253.88346 
  169000       169000     6000    296.81961   -274.78064    68624.122    5398.1892   -3779.8768    3870.3736   -1708.8971    21093.843   -23164.823    1747.1402    1818.2679    5123.1854    90.496738    5307.6925   0.77561523    40.941046    40.941046    40.941046     255.4101 
  170000       170000     6000    295.58457   -628.39702    68624.122    5263.3489   -3841.4899    3819.2312   -1691.8624      21012.3   -23161.927     1738.719    1774.7288    4634.4414   -22.258684    5285.6076   0.77561523    40.941046    40.941046    40.941046    256.93682 
  171000       171000     6000    293.24521   -274.84283    68624.122    5276.6854   -3750.7566    3783.6665   -1628.8051    21048.993   -23170.945    1725.7077    1767.9884    5001.6193    32.909872    5243.7756   0.77561523    40.941046    40.941046    40.941046    258.43174 
  172000       172000     6000    299.77558    1127.6037    68624.122    5262.4766   -3844.3765    3746.3023   -1626.6931    20946.751   -23164.435    1677.5913    1772.2863    6390.9965   -98.074241    5360.5509   0.77561523    40.941046    40.941046    40.941046    259.94838 
  173000       173000     6000    295.28502    685.25067    68624.122    5361.4493   -3763.0839    3844.2821    -1693.681    21100.067    -23169.47    1706.5122    1817.8037    6047.2566    81.198197    5280.2511   0.77561523    40.941046    40.941046    40.941046    261.46669 
  174000       174000     6000    286.85978    344.22366    68624.122    5045.6571    -3821.868    3737.9331   -1615.4119    20960.402   -23166.858    1659.6549    1784.1876    5390.1605   -83.934863     5129.592   0.77561523    40.941046    40.941046    40.941046     262.9949 
  175000       175000     6000    292.51522   -129.52236    68624.122    5300.7278   -3801.1276    3871.1335   -1634.9064    21001.981   -23168.202    1767.2368    1788.5684    5171.1002    70.005817     5230.722   0.77561523    40.941046    40.941046    40.941046    264.52306 
  176000       176000     6000    292.22961    350.49688    68624.122    5198.2351   -3873.5538    3846.1741   -1621.0425    20913.174   -23165.686    1744.9948    1795.5244    5549.0167   -27.379636    5225.6147   0.77561523    40.941046    40.941046    40.941046    266.02033 
  177000       177000     6000    294.87824    488.01237    68624.122    5322.1101   -3805.2648    3854.3978   -1699.0463    21063.849   -23170.067    1699.6141    1854.9577     5810.519    49.132965    5272.9772   0.77561523    40.941046    40.941046    40.941046    267.50241 
  178000       178000     6000    288.32446    177.84473    68624.122    5005.8265   -3931.5971    3781.6403   -1620.8954    20862.192   -23172.893    1668.1983    1813.9251    5183.8157   -149.95681    5155.7833   0.77561523    40.941046    40.941046    40.941046     269.0137 
  179000       179000     6000    297.77884   -45.982047    68624.122     5194.223   -3935.2393     3804.617   -1633.2286    20862.472   -23164.483      1730.87    1774.6848    5148.2036   -130.62232    5324.8453   0.77561523    40.941046    40.941046    40.941046    270.52227 
  180000       180000     6000    294.84282   -376.79621    68624.122    5202.6424   -3919.8528    3850.1515   -1623.1783    20871.981   -23168.656    1745.7929    1784.0438    4825.5401   -69.701382    5272.3438   0.77561523    40.941046    40.941046    40.941046    272.02035 
  181000       181000     6000    291.54456    806.26705    68624.122    5124.3249   -3818.2002    3729.1604   -1695.8311    21051.857   -23174.226    1646.8033    1781.0531     5931.247   -89.039782    5213.3647   0.77561523    40.941046    40.941046    40.941046    273.55906 
  182000       182000     6000    297.22299    947.87442    68624.122    5235.0184   -3827.9286    3748.0413   -1676.9449    21022.157   -23173.141    1692.8709    1745.1804    6183.6629   -79.887291    5314.9057   0.77561523    40.941046    40.941046    40.941046    275.06116 
  183000       183000     6000    298.45085    576.04929    68624.122    5288.6208   -3861.8209    3813.5796   -1628.7258    20933.531   -23166.626    1714.9906    1777.9626    5865.1381   -48.241306    5336.8621   0.77561523    40.941046    40.941046    40.941046    276.55955 
  184000       184000     6000    288.64696   -195.93087    68624.122     5086.694   -3831.4661    3756.6099    -1711.364     21047.83   -23167.933    1677.7577    1782.6589    4890.6039   -74.856244    5161.5502   0.77561523    40.941046    40.941046    40.941046    278.06918 
  185000       185000     6000    291.87681     643.9153    68624.122    5144.2204   -3823.8621    3748.7764   -1729.0491    21074.054   -23168.867    1664.0232    1767.0789    5788.6588    -75.08565     5219.306   0.77561523    40.941046    40.941046    40.941046    279.58524 
  186000       186000     6000    296.10524    27.055632    68624.122    5342.6439   -3829.5611    3877.2868   -1599.9326    20936.819   -23166.447    1726.1706    1835.1134    5369.7215    47.725724    5294.9182   0.77561523    40.941046    40.941046    40.941046    281.08788 
  187000       187000     6000    295.70412    685.32311    68624.122    5228.7125    -3861.465    3802.4321   -1615.8676     20924.91   -23170.508    1699.6475    1791.5359    5914.5924   -59.032889    5287.7454   0.77561523    40.941046    40.941046    40.941046    282.60121 
  188000       188000     6000    295.59621    111.88919    68624.122    5292.3494   -3882.2714    3888.8049   -1637.2479    20924.118   -23169.142    1772.4702    1793.3517    5404.3295    6.5335474    5285.8158   0.77561523    40.941046    40.941046    40.941046    284.11286 
  189000       189000     6000    295.61948   -1303.5941    68624.122    5287.3606   -3837.0067    3838.1354   -1722.2318     21048.48   -23163.254    1737.7804    1770.7167    3982.7074    1.1286146     5286.232   0.77561523    40.941046    40.941046    40.941046    285.61871 
  190000       190000     6000    294.72031    729.89357    68624.122    5334.5718   -3749.8412      3814.26   -1658.1533    21080.819   -23172.507    1730.5954    1775.2787    6065.0583    64.418738     5270.153   0.77561523    40.941046    40.941046    40.941046    287.08337 
  191000       191000     6000    300.46925   -108.95198    68624.122    5468.5098   -3821.4827    3917.0375   -1649.7616    20997.451   -23169.172     1790.663    1812.5642    5359.4693    95.554837    5372.9549   0.77561523    40.941046    40.941046    40.941046    288.57342 
  192000       192000     6000    292.66024   -122.26982    68624.122    5223.5761   -3827.0613    3817.3223   -1673.7227    21013.825   -23167.164    1703.5053    1791.8035    5101.2069   -9.7390227    5233.3151   0.77561523    40.941046    40.941046    40.941046    290.06882 
  193000       193000     6000    292.92843    263.22104    68624.122    5292.0665   -3832.7277    3886.6833   -1629.1577    20966.639   -23170.209    1723.1021    1834.0072    5555.5014    53.955677    5238.1108   0.77561523    40.941046    40.941046    40.941046    291.56252 
  194000       194000     6000    298.77391    98.101384    68624.122    5328.5331   -3857.0617    3842.9558   -1675.2787    20990.229   -23172.012    1753.6462     1788.503    5426.7142   -14.105916     5342.639   0.77561523    40.941046    40.941046    40.941046    293.04095 
  195000       195000     6000    298.93477    314.77678    68624.122    5315.2765   -3845.7309     3815.492   -1670.4698    20992.904   -23168.165    1694.5365    1804.1978     5630.309   -30.238977    5345.5155   0.77561523    40.941046    40.941046    40.941046    294.55863 
  196000       196000     6000    292.01095   -54.398057    68624.122    5243.3997   -3835.6691    3857.3642   -1664.6574    20995.373   -23166.384    1732.7272    1808.4917    5188.9575    21.695163    5221.7046   0.77561523    40.941046    40.941046    40.941046     296.0705 
  197000       197000     6000    296.30129   -460.78936    68624.122    5294.8545   -3837.3944    3833.8249   -1662.8019    21000.013   -23174.606    1717.8574    1832.0764    4833.6908    -3.569483     5298.424   0.77561523    40.941046    40.941046    40.941046    297.54806 
  198000       198000     6000    296.31099    427.57989    68624.122    5282.1155   -3821.3112    3804.8293   -1621.8647    20976.115   -23175.562    1744.5734    1740.3098    5710.0428   -16.481925    5298.5974   0.77561523    40.941046    40.941046    40.941046    299.14974 
  199000       199000     6000    291.05184   -559.16606    68624.122    5135.8454    -3879.013    3810.3045   -1678.7979    20969.554    -23169.77    1692.9333    1811.6806     4576.225   -68.708511    5204.5539   0.77561523    40.941046    40.941046    40.941046    300.68507 
  200000       200000     6000    295.21315    310.89726    68624.122    5306.4502   -3811.8337    3839.3178   -1660.7095     21018.92   -23170.044    1736.7972    1800.8349       5617.6    27.484153     5278.966   0.77561523    40.941046    40.941046    40.941046    302.20407 
  201000       201000     6000    298.13687    804.58142    68624.122    5283.5606   -3804.8381     3757.151   -1636.1029    21001.334   -23170.069     1655.206    1792.2325    6088.7957    -47.68704    5331.2476   0.77561523    40.941046    40.941046    40.941046    303.71632 
  202000       202000     6000    291.34986    -231.7502    68624.122    5141.5651   -3800.7778    3732.4598   -1693.4094    21063.587   -23170.955    1705.0005    1730.9546    4909.6266   -68.317935     5209.883   0.77561523    40.941046    40.941046    40.941046    305.21875 
  203000       203000     6000    292.13132    221.42461    68624.122     5215.168    -3834.511     3825.822   -1653.1259    20990.426   -23171.811    1741.1189    1779.7636    5436.7725   -8.6890528    5223.8571   0.77561523    40.941046    40.941046    40.941046    306.72358 
  204000       204000     6000    294.95398    192.10763    68624.122     5316.924   -3773.2109    3815.8034   -1631.5408    21025.013   -23166.683    1709.8085    1785.6249    5509.1877    42.592486    5274.3315   0.77561523    40.941046    40.941046    40.941046    308.20519 
  205000       205000     6000    287.82812    1400.6462    68624.122    5054.9319   -3833.1422    3741.1663   -1740.2634    21077.546   -23170.425    1688.5414    1742.1078    6456.7161   -91.975853    5146.9078   0.77561523    40.941046    40.941046    40.941046    309.68684 
  206000       206000     6000    294.68678    58.008447    68624.122    5220.2041    -3853.604    3804.2546   -1729.1291    21039.006   -23163.481    1716.8045    1780.9735    5278.2597   -49.349385    5269.5535   0.77561523    40.941046    40.941046    40.941046    311.17044 
  207000       207000     6000    296.26639    520.23145    68624.122    5326.3292   -3803.3176    3831.8469    -1718.758    21083.016   -23167.576    1714.2342    1806.9713    5846.9834    28.529346    5297.7999   0.77561523    40.941046    40.941046    40.941046    312.66492 
  208000       208000     6000    290.96024   -790.81193    68624.122    5327.5573   -3754.1339    3878.7752   -1642.1094    21052.852   -23164.876    1786.6069    1792.8205    4536.1029    124.64134    5202.9159   0.77561523    40.941046    40.941046    40.941046      314.163 
  209000       209000     6000    295.96495    38.478635    68624.122    5218.6559   -3863.6073    3789.8537   -1651.7172    20952.466   -23164.356    1694.0865     1777.375    5257.1658   -73.753693    5292.4096   0.77561523    40.941046    40.941046    40.941046    315.65322 
  210000       210000     6000    293.01668    315.40114    68624.122    5189.9478    -3863.884    3814.1427   -1651.2386    20952.604   -23165.249    1707.0549    1804.0007    5505.6052   -49.741263     5239.689   0.77561523    40.941046    40.941046    40.941046    317.18342 
  211000       211000     6000    296.55874    600.28721    68624.122     5301.115   -3802.7697    3800.8571   -1687.8976     21049.27   -23164.142    1688.4797     1802.506    5901.8899   -1.9126012    5303.0276   0.77561523    40.941046    40.941046    40.941046    318.66405 
  212000       212000     6000    295.97153   -375.98609    68624.122    5274.1288   -3793.1651    3774.7666   -1651.7531    21025.024   -23166.436    1647.7694    1822.0201    4897.8372   -18.398508    5292.5273   0.77561523    40.941046    40.941046    40.941046    320.17537 
  213000       213000     6000    294.81367    215.22937    68624.122    5305.9113   -3766.0854    3800.1742   -1647.3245    21050.733   -23169.494     1727.286    1778.8712    5521.3155     34.08878    5271.8225   0.77561523    40.941046    40.941046    40.941046    321.68628 
  214000       214000     6000    288.73314   -70.304873    68624.122    5309.5858   -3752.4083    3898.9029   -1695.8559    21112.666   -23169.219    1731.7971    1848.8526    5239.2238     146.4946    5163.0912   0.77561523    40.941046    40.941046    40.941046    323.20157 
  215000       215000     6000    296.49955    1059.2429    68624.122    5383.6053   -3790.7017    3872.3378   -1690.4292    21067.655   -23167.928    1733.6776    1818.0315    6443.7087    81.636031    5301.9692   0.77561523    40.941046    40.941046    40.941046    324.71443 
  216000       216000     6000    294.87738    845.69872    68624.122    5319.7145    -3790.221    3836.9737   -1622.8439    21003.924   -23171.301    1741.6608    1794.1019    6166.1003    46.752681    5272.9618   0.77561523    40.941046    40.941046    40.941046    326.23068 
  217000       217000     6000    297.54943    631.91603    68624.122    5309.1769   -3855.3023    3843.7362   -1599.3586    20908.227    -23164.17    1743.1598    1779.1596    5941.6063   -11.566107     5320.743   0.77561523    40.941046    40.941046    40.941046    327.71948 
  218000       218000     6000    293.71913   -186.05169    68624.122    5236.0523   -3783.3927    3767.1949   -1599.8383    20984.109   -23167.663    1674.9086    1795.3855    5049.8495   -16.197776    5252.2501   0.77561523    40.941046    40.941046    40.941046    329.19563 
  219000       219000     6000    296.48058   -315.41767    68624.122    5353.0125   -3794.7829    3846.1654    -1648.159     21018.69   -23165.314    1743.3738    1792.5155    5037.3385     51.38248      5301.63   0.77561523    40.941046    40.941046    40.941046    330.71225 
  220000       220000     6000    292.93643    5.4893355    68624.122     5146.738    -3907.979     3816.463    -1637.398    20899.235   -23169.816    1701.1715    1793.9316    5152.2318   -91.515964     5238.254   0.77561523    40.941046    40.941046    40.941046     332.2495 
  221000       221000     6000    292.50707   -104.02013    68624.122    5196.7671   -3801.7511     3767.942   -1640.1853    21001.822   -23163.387    1720.7993    1747.4519    5092.6625   -33.809146    5230.5763   0.77561523    40.941046    40.941046    40.941046     333.7684 
  222000       222000     6000    291.60834   -58.699976    68624.122    5201.9692   -3879.3523    3866.8163   -1644.6491    20936.038   -23170.741    1762.0831    1806.5045    5143.2216   -12.536045    5214.5053   0.77561523    40.941046    40.941046    40.941046    335.29485 
  223000       223000     6000    296.02372    717.60821    68624.122    5292.9407   -3846.3555    3845.8358   -1708.6802    21030.295    -23167.97    1722.3533    1807.2747    6011.1319  -0.51971114    5293.4604   0.77561523    40.941046    40.941046    40.941046     336.8064 
  224000       224000     6000    296.36657    282.20795    68624.122    5227.3727   -3842.7934    3770.5749   -1681.1916    21009.714   -23171.316     1745.475    1732.7098    5509.8099   -72.218517    5299.5912   0.77561523    40.941046    40.941046    40.941046    338.31897 
  225000       225000     6000    298.68017    717.82084    68624.122    5296.5419    -3808.975     3764.554   -1641.9398     21001.07   -23168.105    1708.2431    1738.9728    6014.9459   -44.420975    5340.9629   0.77561523    40.941046    40.941046    40.941046    339.83294 
  226000       226000     6000    296.27033    710.25513    68624.122    5232.3591   -3826.2941    3760.7828   -1657.0502    21000.647   -23169.891      1698.23    1765.2583    5943.1913   -65.511254    5297.8704   0.77561523    40.941046    40.941046    40.941046    341.35073 
  227000       227000     6000    296.15114    117.56287    68624.122    5240.1269   -3795.2284    3739.6162      -1676.1    21050.023   -23169.151    1656.2181    1787.8772    5357.7853   -55.612144     5295.739   0.77561523    40.941046    40.941046    40.941046    342.86239 
  228000       228000     6000    293.56066    75.064061    68624.122    5145.4532   -3886.0826    3782.1196    -1619.718    20907.398   -23173.763    1764.6897    1728.4599    5220.5783   -103.96305    5249.4163   0.77561523    40.941046    40.941046    40.941046    344.35389 
  229000       229000     6000    295.51005    87.601698    68624.122    5189.9042   -3884.9328    3790.5619   -1618.7402    20902.147   -23168.339    1712.4463    1775.3993     5277.577   -94.370889    5284.2751   0.77561523    40.941046    40.941046    40.941046    345.85548 
  230000       230000     6000    300.66851   -874.68414    68624.122    5325.4889   -3898.4875    3847.4584   -1646.5311     20919.45   -23171.406    1730.8834    1811.8758    4450.0941   -51.029157     5376.518   0.77561523    40.941046    40.941046    40.941046    347.36351 
  231000       231000     6000    295.06565   -55.120222    68624.122    5270.1351   -3838.1071    3831.9139    -1660.989    20992.544   -23169.662    1685.0065    1827.7168    5214.9701   -6.1932356    5276.3284   0.77561523    40.941046    40.941046    40.941046     348.9023 
  232000       232000     6000    290.69412    1182.2702    68624.122    5123.1021   -3842.6829    3767.6278   -1664.1952     20992.28   -23170.768    1672.9929    1788.9585    6306.3328   -75.055137    5198.1573   0.77561523    40.941046    40.941046    40.941046    350.45438 
  233000       233000     6000    293.57162     152.0189    68624.122    5292.7923   -3847.7387    3890.9187   -1700.2124    21017.731   -23165.257    1718.6765    1855.1113    5444.9347    43.179993    5249.6123   0.77561523    40.941046    40.941046    40.941046    351.95314 
  234000       234000     6000     292.4946    312.83471    68624.122    5172.9053   -3875.4251    3817.9772   -1598.1408    20892.124   -23169.409    1758.6537    1758.9015    5485.9941   -57.447886    5230.3532   0.77561523    40.941046    40.941046    40.941046    353.44764 
  235000       235000     6000    295.28215    27.284888    68624.122     5316.012   -3854.0005    3889.8127    -1716.991    21033.062   -23170.072    1782.3067    1811.3272    5343.3191    35.812165    5280.1999   0.77561523    40.941046    40.941046    40.941046    354.96478 
  236000       236000     6000    290.13795    588.91785    68624.122    5127.8913   -3898.2297    3837.9092   -1608.7515    20877.987   -23167.466    1739.3734    1777.9339    5717.2876   -60.320547    5188.2119   0.77561523    40.941046    40.941046    40.941046    356.47257 
  237000       237000     6000    298.18415   -288.87312    68624.122    5388.2736   -3786.7494    3842.9299    -1732.247    21115.396   -23169.898    1700.2678    1835.2723    5099.1658    56.180558    5332.0931   0.77561523    40.941046    40.941046    40.941046    357.96731 
  238000       238000     6000    290.27669   -1291.1307    68624.122    5217.8625   -3866.3178    3893.4875   -1661.2684    20964.855   -23169.905    1748.8279     1826.856    3925.6828    27.169692    5190.6928   0.77561523    40.941046    40.941046    40.941046    359.48783 
  239000       239000     6000    296.53655    378.50465    68624.122    5249.1946   -3820.1795    3766.7431   -1654.4713    21004.825   -23170.534    1643.3815    1820.4457    5628.0067   -53.436343    5302.6309   0.77561523    40.941046    40.941046    40.941046    360.99685 
  240000       240000     6000    290.71872   -795.94681    68624.122    5173.2378   -3874.0456    3848.6862   -1635.7218    20925.719   -23164.043    1760.5629    1769.3584    4376.6443   -25.359408    5198.5972   0.77561523    40.941046    40.941046    40.941046    362.49908 
  241000       241000     6000    295.77392    167.33478    68624.122    5297.9178   -3814.8863    3823.8105   -1599.9349    20946.248   -23161.199    1714.7549     1805.775    5465.3886    8.9242282    5288.9936   0.77561523    40.941046    40.941046    40.941046    364.00324 
  242000       242000     6000    298.80443   -74.564494    68624.122    5283.2826   -3838.9971    3779.0949   -1684.2589    21012.356   -23167.094     1693.398    1770.4981    5208.6575   -59.902143    5343.1848   0.77561523    40.941046    40.941046    40.941046    365.52457 
  243000       243000     6000    297.68757    340.53638    68624.122    5345.4803   -3745.2358    3767.5028   -1644.7292    21063.812   -23164.318     1659.645    1807.1897    5686.2933    22.266998    5323.2133   0.77561523    40.941046    40.941046    40.941046    367.02604 
  244000       244000     6000    297.99762    215.85638    68624.122    5322.2748   -3840.1831    3833.7004    -1658.097    20990.972   -23173.058    1706.9203    1816.2337    5538.3066   -6.4826299    5328.7574   0.77561523    40.941046    40.941046    40.941046    368.53761 
  245000       245000     6000    290.31513    3.2172969    68624.122    5142.1487   -3817.4405    3768.2091    -1667.064    21014.806   -23165.183    1671.5486    1781.1665    5145.3686    -49.23143    5191.3801   0.77561523    40.941046    40.941046    40.941046    370.04644 
  246000       246000     6000    292.10325    71.087173    68624.122     5302.175   -3806.0501      3884.87   -1651.4272    21016.699   -23171.322    1717.0458    1856.5276    5373.3199    78.819932    5223.3551   0.77561523    40.941046    40.941046    40.941046     371.5429 
  247000       247000     6000    299.82485     929.8104    68624.122    5213.3066   -3846.2237    3698.0985   -1674.0078     20993.49   -23165.706    1628.4722    1781.0193    6143.8724   -148.12516    5361.4318   0.77561523    40.941046    40.941046    40.941046    373.03839 
  248000       248000     6000    295.68818    343.30064    68624.122     5246.239   -3861.7631    3820.5417   -1678.6188    20985.854   -23168.998     1714.939    1798.4687    5589.8186   -41.221373    5287.4604   0.77561523    40.941046    40.941046    40.941046     374.5251 
  249000       249000     6000    295.92105    47.112228    68624.122    5207.6267   -3837.2011    3753.2033   -1623.5956     20958.42   -23172.025    1655.7179    1793.3172    5254.7772   -83.997809    5291.6245   0.77561523    40.941046    40.941046    40.941046    376.04287 
  250000       250000     6000    299.99701    -1302.923    68624.122    5412.3604   -3859.9528    3907.8028   -1678.9565    20980.451   -23161.447    1762.2555    1833.9471    4108.3789     47.85003    5364.5104   0.77561523    40.941046    40.941046    40.941046    377.55497 
  251000       251000     6000    294.13052   -385.01519    68624.122    5217.0624   -3846.9332    3804.3891   -1668.8183    20989.452   -23167.567    1725.4327    1763.1524    4831.7344   -42.544109    5259.6065   0.77561523    40.941046    40.941046    40.941046    379.03757 
  252000       252000     6000    299.91676     559.1999    68624.122    5481.2603   -3783.7737    3901.9587   -1671.5294    21059.618   -23171.862     1714.379    1877.0361    6040.9145    118.18496    5363.0753   0.77561523    40.941046    40.941046    40.941046     380.5331 
  253000       253000     6000    294.75178    654.01226    68624.122    5204.9755   -3860.7353     3794.995   -1638.2288    20941.381   -23163.887     1685.753    1792.5787    5859.5191   -65.740294    5270.7158   0.77561523    40.941046    40.941046    40.941046    382.03955 
  254000       254000     6000    293.57018    -421.5737    68624.122    5178.7959   -3842.0394    3771.2487   -1668.7073    20995.799   -23169.131    1660.0881    1815.7014    4756.8797   -70.790752    5249.5867   0.77561523    40.941046    40.941046    40.941046    383.53758 
  255000       255000     6000    295.41185   -1086.7897    68624.122    5092.7691   -3942.0305    3752.2805   -1620.9449      20846.1   -23167.186    1718.3789    1738.3018    4005.0964   -189.74995     5282.519   0.77561523    40.941046    40.941046    40.941046    385.01675 
  256000       256000     6000    298.32865    80.937907    68624.122    5329.4367   -3831.3349    3826.0946   -1716.4828    21055.526   -23170.378    1704.6309    1800.5885    5410.4403   -5.2403205     5334.677   0.77561523    40.941046    40.941046    40.941046    386.50867 
  257000       257000     6000    293.79945    726.74693    68624.122    5206.0559   -3833.0081    3785.3776   -1664.9185    21002.291    -23170.38    1689.8609     1779.641    5933.3932   -47.630509    5253.6864   0.77561523    40.941046    40.941046    40.941046    388.01481 
  258000       258000     6000    296.98838    -744.2896    68624.122    5311.3465   -3826.9643    3827.6003   -1652.6636    20994.646   -23168.946     1709.686    1792.8959    4566.4522   0.63602859    5310.7104   0.77561523    40.941046    40.941046    40.941046    389.53244 
  259000       259000     6000    297.51646    501.79522    68624.122    5274.4273   -3898.9122     3853.186   -1658.4316    20929.174   -23169.655    1693.1557    1845.7429    5776.6302   -45.726241    5320.1535   0.77561523    40.941046    40.941046    40.941046    391.04312 
  260000       260000     6000    294.35138   -294.08811    68624.122    5296.2744   -3821.5632    3854.2816   -1690.1808    21035.525   -23166.908    1726.0435    1816.1091    5001.9474    32.718446     5263.556   0.77561523    40.941046    40.941046    40.941046    392.56176 
  261000       261000     6000    292.48517    622.60799    68624.122    5267.0211   -3799.7724     3836.609   -1633.1851    21002.497   -23169.085    1762.9292    1774.5498    5890.1349    36.836571    5230.1845   0.77561523    40.941046    40.941046    40.941046    394.04762 
  262000       262000     6000    292.56217    50.284337    68624.122    5261.5729   -3807.6844    3837.6959   -1663.0572    21024.143    -23168.77    1717.5399    1798.3034    5311.8981    30.011504    5231.5614   0.77561523    40.941046    40.941046    40.941046    395.55721 
  263000       263000     6000    294.92371    734.21879    68624.122    5243.7084   -3814.3672    3784.2854   -1669.7299    21022.303    -23166.94    1718.9846    1763.8597    5978.5237   -30.081815    5273.7903   0.77561523    40.941046    40.941046    40.941046      397.077 
  264000       264000     6000    292.52175   -360.05515    68624.122    5146.0726   -3847.3606    3762.5944   -1602.6103    20924.642   -23169.393    1714.7838    1755.8467    4785.7249   -84.766164    5230.8388   0.77561523    40.941046    40.941046    40.941046    398.61715 
  265000       265000     6000    297.48043    1024.0821    68624.122     5289.229   -3792.5661    3762.2859   -1658.3552    21031.782   -23165.993    1699.6958    1771.0157    6314.1431   -30.280204    5319.5092   0.77561523    40.941046    40.941046    40.941046    400.13696 
  266000       266000     6000    293.94603     91.27819    68624.122    5269.2542   -3799.6804    3812.6272   -1728.4462    21091.205   -23162.439    1701.2808     1810.383    5360.6066    12.946777    5256.3075   0.77561523    40.941046    40.941046    40.941046     401.6437 
  267000       267000     6000    294.28679    68.331634    68624.122    5221.7054   -3808.6524    3767.9569   -1681.4025    21039.146   -23166.396    1695.9022    1768.1775    5290.0926   -40.695431    5262.4009   0.77561523    40.941046    40.941046    40.941046    403.14982 
  268000       268000     6000    294.19538   -255.93902    68624.122    5249.2319   -3820.1774    3808.6429   -1649.9874    21001.435   -23171.625    1710.8958    1792.5246     4993.085   -11.534446    5260.7664   0.77561523    40.941046    40.941046    40.941046    404.64747 
  269000       269000     6000    293.89558   -401.49909    68624.122    5244.4384   -3809.0119     3798.045   -1658.3439    21018.328   -23168.996    1700.8714    1789.2242    4842.6131   -10.966959    5255.4054   0.77561523    40.941046    40.941046    40.941046    406.14628 
  270000       270000     6000    298.72791    354.36561    68624.122    5442.1462   -3768.7367    3869.0664    -1629.787    21021.838   -23160.787    1734.4589     1814.432    5796.7997    100.32972    5341.8165   0.77561523    40.941046    40.941046    40.941046    407.65405 
  271000       271000     6000    295.43395   -769.05803    68624.122    5166.6044   -3859.7134    3743.4036   -1665.2467    20972.121   -23166.587    1718.1177    1713.9494    4396.9216   -116.30982    5282.9142   0.77561523    40.941046    40.941046    40.941046    409.15118 
  272000       272000     6000    294.92056    801.05443    68624.122    5328.5676   -3775.3446    3830.1783   -1651.0279    21040.256   -23164.572    1708.0275    1807.3265    6130.2729    54.833741    5273.7339   0.77561523    40.941046    40.941046    40.941046    410.65042 
  273000       273000     6000    287.25294    162.88731    68624.122    5077.2975   -3897.8215    3838.4965   -1590.4154    20864.792   -23172.199    1741.6594     1784.919    5240.3171    -59.32502    5136.6225   0.77561523    40.941046    40.941046    40.941046    412.14276 
  274000       274000     6000    296.18243   -161.71982    68624.122    5207.5219   -3864.7707    3775.9941   -1616.9131    20920.208   -23168.066    1672.9356    1792.1117    5045.6707   -88.776608    5296.2985   0.77561523    40.941046    40.941046    40.941046    413.65208 
  275000       275000     6000    295.86835     1088.273    68624.122    5208.9413   -3886.8897    3805.1487   -1559.5069    20837.586   -23164.969    1713.3272    1800.9279    6298.0985   -81.740916    5290.6822   0.77561523    40.941046    40.941046    40.941046    415.16463 
  276000       276000     6000    298.10976    421.40232    68624.122    5401.1118   -3762.1872     3832.536    -1671.873    21079.179   -23169.493    1710.9877    1815.7363    5822.8564    70.348871    5330.7629   0.77561523    40.941046    40.941046    40.941046    416.68983 
  277000       277000     6000    295.54281    554.91097    68624.122    5369.4194   -3796.2193    3880.7778   -1637.5565    21012.127    -23170.79    1761.2214    1807.2377    5924.7812    84.558579    5284.8608   0.77561523    40.941046    40.941046    40.941046    418.16934 
  278000       278000     6000    296.70162   -160.17229    68624.122    5252.4539   -3854.5891    3801.4604   -1576.2716    20886.563    -23164.88    1694.8776    1795.0564    5092.1515   -53.128739    5305.5827   0.77561523    40.941046    40.941046    40.941046    419.69262 
[...]
 4936000      4936000     6000    296.96035   -659.27196    68624.122    5325.0526   -3777.7319    3792.5754   -1650.6228    21041.671    -23168.78    1706.6163    1770.8653    4665.2451    14.843442    5310.2092   0.77561523    40.941046    40.941046    40.941046    7356.9924 
 4937000      4937000     6000     295.4742   -365.60621    68624.122    5256.1678   -3823.6832     3796.217   -1692.4258    21027.516   -23158.773    1722.5718    1767.1035    4890.2645   -27.466172     5283.634   0.77561523    40.941046    40.941046    40.941046    7358.4688 
 4938000      4938000     6000    294.80111    177.26241    68624.122    5214.1655   -3865.5792    3808.1466   -1635.5052    20938.918   -23168.992    1724.4108    1773.8311    5391.5719   -57.432533     5271.598   0.77561523    40.941046    40.941046    40.941046    7359.9805 
 4939000      4939000     6000    297.79965   -29.103934    68624.122    5162.9128   -3849.9202    3687.6156   -1630.4815    20952.369   -23171.808    1651.9376    1718.9066    5133.7852   -162.30461    5325.2174   0.77561523    40.941046    40.941046    40.941046    7361.4556 
 4940000      4940000     6000    294.29254   -728.22802    68624.122    5234.2826   -3855.9508    3827.7296   -1672.3763    20982.828   -23166.402    1762.2904    1770.2813     4505.463   -28.221127    5262.5037   0.77561523    40.941046    40.941046    40.941046     7362.923 
 4941000      4941000     6000     302.2154     14.24247    68624.122     5340.935   -3800.1418    3736.8973   -1624.6167    20992.414   -23167.939    1727.4423    1708.6596     5355.189   -63.244425    5404.1794   0.77561523    40.941046    40.941046    40.941046    7364.3924 
 4942000      4942000     6000    293.08429    211.76301    68624.122    5164.4665   -3836.5858    3760.1544   -1557.1773    20891.947   -23171.355    1739.4941    1698.6894    5376.4016   -76.431368    5240.8979   0.77561523    40.941046    40.941046    40.941046    7365.9009 
 4943000      4943000     6000    295.66618    1075.7313    68624.122       5221.9   -3789.8515    3724.6845   -1650.7455    21036.048   -23175.154    1666.5496    1753.5768    6298.5053   -65.167009    5287.0671   0.77561523    40.941046    40.941046    40.941046    7367.4048 
 4944000      4944000     6000     291.7532    416.48923    68624.122     5222.548   -3827.8925    3833.3451   -1642.6224    20982.065   -23167.336    1713.3381    1813.8505    5639.3756    5.4525624    5217.0955   0.77561523    40.941046    40.941046    40.941046    7368.8877 
 4945000      4945000     6000    295.22214    16.038886    68624.122    5287.0009   -3804.0827    3811.9568   -1663.7721    21028.955   -23169.266    1751.2835    1756.5713    5303.0528     7.874089    5279.1268   0.77561523    40.941046    40.941046    40.941046    7370.3698 
 4946000      4946000     6000    291.03982   -812.74842    68624.122    5174.3085   -3800.1992    3770.1687   -1646.1667    21013.829   -23167.862     1697.363    1761.5941    4360.8998    -30.03045     5204.339   0.77561523    40.941046    40.941046    40.941046    7371.8393 
 4947000      4947000     6000    292.12172    -482.4522    68624.122    5217.0933   -3819.1647    3812.5726   -1663.7023    21008.506   -23163.968    1755.6233    1753.1982    4734.2492   -6.5920551    5223.6854   0.77561523    40.941046    40.941046    40.941046    7373.3253 
 4948000      4948000     6000    296.98407    653.24342    68624.122    5382.4503   -3738.3826    3810.1994    -1694.683    21125.817   -23169.517    1710.1405    1790.3877    6036.2244    71.816874    5310.6334   0.77561523    40.941046    40.941046    40.941046    7374.8051 
 4949000      4949000     6000    296.42388   -821.87702    68624.122    5269.1733   -3821.2758     3789.833   -1696.7716    21040.345   -23164.849    1698.7555    1773.4122    4446.6286   -31.442783    5300.6161   0.77561523    40.941046    40.941046    40.941046    7376.2931 
 4950000      4950000     6000    301.29345    249.44682    68624.122    5240.8482    -3861.818     3714.973   -1638.1944    20945.842   -23169.465    1687.1949    1727.2617    5490.4976   -146.84509    5387.6932   0.77561523    40.941046    40.941046    40.941046     7377.766 
 4951000      4951000     6000     295.0607    60.129208    68624.122    5242.2627   -3811.4419    3777.4648    -1693.599    21051.737   -23169.579     1694.918    1767.8994    5302.4408   -33.977112    5276.2398   0.77561523    40.941046    40.941046    40.941046    7379.2332 
 4952000      4952000     6000    298.92474    218.71487    68624.122    5207.9678   -3809.2892    3671.9207   -1662.9144    21021.568   -23167.943    1667.8492    1717.5979    5426.8603   -137.36849    5345.3362   0.77561523    40.941046    40.941046    40.941046    7380.6951 
 4953000      4953000     6000    295.41156     60.45785    68624.122    5248.4668   -3780.8087    3746.7616   -1736.2429    21127.701   -23172.267    1646.0046    1798.3831    5308.9738   -34.047116    5282.5139   0.77561523    40.941046    40.941046    40.941046    7382.1609 
 4954000      4954000     6000    293.47161    545.44458    68624.122    5365.5002   -3749.3999     3867.076   -1670.8574    21086.327    -23164.87    1729.3368    1847.9284    5911.3879    117.67613     5247.824   0.77561523    40.941046    40.941046    40.941046    7383.6348 
 4955000      4955000     6000    295.67773   -172.18203    68624.122    5320.3233   -3800.3162    3833.3661    -1718.573    21087.023   -23168.766    1729.2713    1803.4291    5148.0014    33.049873    5287.2734   0.77561523    40.941046    40.941046    40.941046    7385.1083 
 4956000      4956000     6000    292.06118   -263.94369    68624.122    5232.9755   -3827.0033     3837.376    -1703.574    21044.212   -23167.641    1722.9481    1809.1005    4968.8174    10.372646    5222.6029   0.77561523    40.941046    40.941046    40.941046    7386.5712 
 4957000      4957000     6000    303.15668    247.56209    68624.122    5371.7736   -3866.4047     3817.167   -1691.3677    20991.511   -23166.548    1739.4085    1783.2315    5619.5368   -49.237662    5421.0113   0.77561523    40.941046    40.941046    40.941046    7388.0591 
 4958000      4958000     6000    290.64689    981.37396    68624.122     5131.066   -3880.9162    3814.6695   -1680.5605    20971.686   -23172.041    1708.0369    1786.4002    6113.2372   -66.246609    5197.3126   0.77561523    40.941046    40.941046    40.941046    7389.5547 
 4959000      4959000     6000    292.23705    858.93616    68624.122    5191.2985   -3846.0458    3811.5966   -1624.0439    20943.993   -23165.995    1717.0965     1775.572    6050.9325   -34.449232    5225.7477   0.77561523    40.941046    40.941046    40.941046    7391.0521 
 4960000      4960000     6000    292.23109   -179.35902    68624.122     5320.538   -3801.4589    3896.3557   -1672.8068    21038.295   -23166.947    1767.4127    1829.8869    5141.0332    94.896775    5225.6412   0.77561523    40.941046    40.941046    40.941046    7392.5399 
 4961000      4961000     6000    290.30364   -317.81414    68624.122    5015.2881   -3926.0321    3750.1455    -1626.454    20869.901   -23169.479    1739.3777    1707.2878    4697.2158   -175.88664    5191.1748   0.77561523    40.941046    40.941046    40.941046    7394.0222 
 4962000      4962000     6000    296.52119    567.38872    68624.122    5223.2264   -3809.5721    3730.4423   -1634.2061    20996.575   -23171.941     1683.393    1754.4378    5791.0761   -79.129808    5302.3562   0.77561523    40.941046    40.941046    40.941046    7395.5235 
 4963000      4963000     6000    295.51524    1208.3625    68624.122    5310.7301   -3765.0693    3791.4314   -1703.7502    21108.306   -23169.625     1730.422      1753.02    6520.0743     26.36214    5284.3679   0.77561523    40.941046    40.941046    40.941046    7396.9871 
 4964000      4964000     6000    291.94495    83.687107    68624.122    5214.7785   -3887.0318    3881.2859   -1619.7679    20896.881   -23164.145    1805.8351    1766.6872    5298.5336   -5.7458921    5220.5244   0.77561523    40.941046    40.941046    40.941046    7398.5195 
 4965000      4965000     6000    298.66218    -558.2995    68624.122    5404.8925   -3807.1595    3871.4109   -1641.9754    20998.585   -23163.769    1727.8113    1845.3346    4846.1395     64.25138    5340.6412   0.77561523    40.941046    40.941046    40.941046    7400.0029 
 4966000      4966000     6000    293.66419   -688.30576    68624.122     5179.665   -3863.2239    3791.6212   -1717.3585    21026.516   -23172.382    1758.6324    1745.9936       4490.8   -71.602687    5251.2677   0.77561523    40.941046    40.941046    40.941046    7401.4756 
 4967000      4967000     6000    293.49193    466.07862    68624.122    5241.2117   -3842.6209    3835.6452   -1636.9952    20964.095    -23169.72    1761.2679    1769.8345     5707.669   -6.9756994    5248.1874   0.77561523    40.941046    40.941046    40.941046    7402.9584 
 4968000      4968000     6000    297.45026   -35.358787    68624.122    5328.0469   -3819.0508     3828.128   -1629.4776    20981.547    -23171.12    1733.6612    1796.2016    5292.6594    9.0772035    5318.9697   0.77561523    40.941046    40.941046    40.941046    7404.4447 
 4969000      4969000     6000    297.68128   -173.77354    68624.122    5250.3568   -3884.7518    3812.0077   -1622.3588    20902.322   -23164.715     1724.247    1768.5289     5076.442   -72.744065    5323.1008   0.77561523    40.941046    40.941046    40.941046    7405.9407 
 4970000      4970000     6000    296.95426    170.63914    68624.122    5245.6441   -3861.2386    3796.7825   -1601.8649    20908.002   -23167.376    1730.6022    1745.5132    5416.4219   -64.456103    5310.1002   0.77561523    40.941046    40.941046    40.941046    7407.4042 
 4971000      4971000     6000    295.01006    634.95975    68624.122    5307.7717   -3831.0322    3863.4696   -1696.2489     21030.32   -23165.104    1772.7758    1784.0672    5943.2473     32.43739    5275.3343   0.77561523    40.941046    40.941046    40.941046    7408.8759 
 4972000      4972000     6000    291.27506    513.30608    68624.122    5171.0908   -3847.9359    3810.4811   -1627.0642    20947.822   -23168.693     1693.895    1811.4353    5684.8139   -37.454771    5208.5456   0.77561523    40.941046    40.941046    40.941046    7410.3352 
 4973000      4973000     6000    292.88744   -189.25185    68624.122    5220.1366   -3835.3308    3818.0895   -1667.3291    21001.672   -23169.674    1666.1015    1847.6156     5030.731   -17.241232    5237.3778   0.77561523    40.941046    40.941046    40.941046    7411.8235 
 4974000      4974000     6000    296.41785   -658.93878    68624.122    5286.6825   -3854.0598     3840.234   -1674.7358    20996.428   -23175.752    1717.4046    1810.1145    4627.2084   -13.825818    5300.5083   0.77561523    40.941046    40.941046    40.941046    7413.2925 
 4975000      4975000     6000    296.86254   -510.38462    68624.122    5297.5464   -3889.7756    3878.8618   -1697.5937    20976.038   -23168.219    1751.2912    1829.9632    4786.7471   -10.913779    5308.4602   0.77561523    40.941046    40.941046    40.941046    7414.7822 
 4976000      4976000     6000    295.85191   -773.74289    68624.122    5276.8861   -3916.5802    3903.0782   -1643.8232     20894.45   -23167.207    1780.7895    1813.2534    4502.5146   -13.502006    5290.3881   0.77561523    40.941046    40.941046    40.941046    7416.2809 
 4977000      4977000     6000    291.93643   -1406.1454    68624.122    5228.1229   -3804.3671     3812.118   -1671.2303    21031.599   -23164.736    1722.7964    1780.1889    3820.8352    7.7508917     5220.372   0.77561523    40.941046    40.941046    40.941046    7417.7623 
 4978000      4978000     6000    290.24383     301.4721    68624.122    5141.3976   -3823.2441    3774.5365   -1629.1019    20970.927   -23165.069    1669.7183    1796.4368    5443.1146   -48.707683    5190.1053   0.77561523    40.941046    40.941046    40.941046    7419.2482 
 4979000      4979000     6000    295.48375    220.54329    68624.122    5242.2545   -3872.2975    3830.7472   -1626.9346    20926.758   -23172.121    1692.6387    1834.1575    5462.9769   -41.550371    5283.8048   0.77561523    40.941046    40.941046    40.941046    7420.7586 
 4980000      4980000     6000     290.8513   -596.92463    68624.122    5160.9097   -3874.6223    3834.5641   -1665.5716    20954.927   -23163.978    1768.7247    1753.9058    4563.5001   -40.058227    5200.9679   0.77561523    40.941046    40.941046    40.941046    7422.2537 
 4981000      4981000     6000    291.93566     322.4685    68624.122    5121.6674   -3881.0554    3782.3645   -1649.7698    20938.736   -23170.022    1691.2414    1776.1427    5444.3979   -98.690927    5220.3583   0.77561523    40.941046    40.941046    40.941046    7423.7527 
 4982000      4982000     6000    297.88762    780.08215    68624.122    5163.6215   -3922.8399    3759.6709    -1588.747    20836.649   -23170.742    1716.3609    1755.1355    5944.3374   -163.16901    5326.7905   0.77561523    40.941046    40.941046    40.941046    7425.2312 
 4983000      4983000     6000    295.33169   -685.84043    68624.122    5194.4824   -3943.3828    3856.7796   -1655.6645    20881.976   -23169.694    1707.9055    1855.4486    4508.0848   -86.603192    5281.0856   0.77561523    40.941046    40.941046    40.941046    7426.7101 
 4984000      4984000     6000    294.58262    344.99896    68624.122    5249.7007   -3855.0856    3837.0953   -1644.8347    20958.542   -23168.793    1692.1062    1837.8727    5594.9799   -17.990284     5267.691   0.77561523    40.941046    40.941046    40.941046    7428.1701 
 4985000      4985000     6000    297.21888   -416.50949    68624.122    5308.9638   -3874.3565    3868.4882   -1687.2396    20984.322   -23171.439    1728.2999    1827.0524    4892.1159   -5.8683629    5314.8321   0.77561523    40.941046    40.941046    40.941046    7429.6473 
 4986000      4986000     6000    299.46777    573.01887    68624.122    5237.8198   -3935.8087     3818.582   -1610.1743    20835.776    -23161.41    1708.7969    1809.0438    5811.3042   -117.22668    5355.0465   0.77561523    40.941046    40.941046    40.941046    7431.1374 
 4987000      4987000     6000    296.74216    -498.8387    68624.122    5267.4913   -3856.4681    3817.6519   -1657.5979    20969.917   -23168.787    1729.4451     1786.684    4768.2473   -38.816221    5306.3075   0.77561523    40.941046    40.941046    40.941046    7432.6145 
 4988000      4988000     6000    297.48857    5.2064206    68624.122    5334.1237   -3852.8828    3867.3517   -1640.5569    20956.853   -23169.179    1719.0293    1841.1746    5339.3343    14.468925    5319.6548   0.77561523    40.941046    40.941046    40.941046    7434.0724 
 4989000      4989000     6000     292.6521    249.61078    68624.122    5233.5397   -3798.5103    3798.8804   -1676.7784    21048.823   -23170.555    1716.4038     1776.253    5483.3533    0.3701004    5233.1696   0.77561523    40.941046    40.941046    40.941046    7435.5395 
 4990000      4990000     6000    296.79842    857.04172    68624.122    5317.9779   -3765.7141    3776.3783   -1675.9841    21080.654   -23170.384    1712.0481    1768.0046    6175.7159    10.664233    5307.3136   0.77561523    40.941046    40.941046    40.941046     7437.041 
 4991000      4991000     6000    292.67558   -162.53484    68624.122    5149.3414   -3839.5411     3755.293   -1646.3576    20977.596    -23170.78    1709.6723    1745.5938    4986.6745   -84.248025    5233.5894   0.77561523    40.941046    40.941046    40.941046    7438.5246 
 4992000      4992000     6000    300.67889    343.82917    68624.122    5332.8767   -3804.3018    3760.4748   -1674.4025    21035.299   -23165.199    1687.0517    1778.9667    5676.9852   -43.827031    5376.7037   0.77561523    40.941046    40.941046    40.941046    7439.9885 
 4993000      4993000     6000    296.46543    274.74346    68624.122    5421.2761   -3788.5081    3908.4252   -1648.1823     21029.29   -23169.615    1822.8567     1782.533    5696.2428    119.91707    5301.3591   0.77561523    40.941046    40.941046    40.941046    7441.4513 
 4994000      4994000     6000    288.15487    230.36931    68624.122     5260.621   -3759.5916    3867.4619   -1729.5567    21141.577   -23171.612    1748.0148     1789.681    5491.1775    107.87032    5152.7507   0.77561523    40.941046    40.941046    40.941046    7442.9017 
 4995000      4995000     6000    297.80203    671.99535    68624.122    5279.3226   -3790.2929    3744.3555   -1717.2246    21093.807   -23166.875    1661.0774    1768.4974    5951.8639   -45.937442    5325.2601   0.77561523    40.941046    40.941046    40.941046    7444.4168 
 4996000      4996000     6000    294.33842    369.59249    68624.122    5283.2797   -3826.6789    3846.6345   -1687.8636    21028.168   -23166.983    1744.7965    1775.6997    5653.1724    19.955574    5263.3241   0.77561523    40.941046    40.941046    40.941046    7445.8984 
 4997000      4997000     6000    292.27869    1311.7235    68624.122    5160.6857   -3806.6504    3740.8438    -1655.892    21024.389   -23175.147    1642.2717    1788.3431    6473.4748   -65.806594    5226.4923   0.77561523    40.941046    40.941046    40.941046    7447.3897 
 4998000      4998000     6000    296.00947    106.21199    68624.122    5356.3999   -3803.3977    3866.5919   -1660.0047    21026.647    -23170.04    1778.5115    1779.4047    5462.6982    63.194231    5293.2057   0.77561523    40.941046    40.941046    40.941046    7448.8603 
 4999000      4999000     6000    298.77775    20.727414    68624.122     5362.326   -3759.0831    3778.7014   -1718.4731    21128.817   -23169.427    1713.6239    1753.5265    5383.0703    19.618335    5342.7077   0.77561523    40.941046    40.941046    40.941046    7450.3486 
 5000000      5000000     6000    296.50177     357.7732    68624.122    5329.5322   -3827.7685    3855.2919   -1672.7942    21004.403   -23159.377    1785.8287    1761.0657    5687.5961    27.523393    5302.0088   0.77561523    40.941046    40.941046    40.941046    7451.8558 
Loop time of 7451.91 on 48 procs for 5000000 steps with 6000 atoms

Performance: 57.972 ns/day, 0.414 hours/ns, 670.969 timesteps/s
99.4% CPU use with 48 MPI tasks x no OpenMP threads

MPI task timing breakdown:
Section |  min time  |  avg time  |  max time  |%varavg| %total
---------------------------------------------------------------
Pair    | 3731.6     | 4108.4     | 4492.4     | 383.1 | 55.13
Bond    | 97.219     | 100.76     | 106.13     |  26.5 |  1.35
Kspace  | 1814       | 2207.9     | 2581.5     | 524.9 | 29.63
Neigh   | 370.24     | 372.04     | 373.29     |   5.8 |  4.99
Comm    | 449.18     | 476.57     | 517.52     |  80.8 |  6.40
Output  | 13.325     | 13.327     | 13.358     |   0.1 |  0.18
Modify  | 135.15     | 150.95     | 165.59     |  60.8 |  2.03
Other   |            | 21.93      |            |       |  0.29

Nlocal:    125 ave 144 max 110 min
Histogram: 2 8 7 6 4 7 6 5 1 2
Nghost:    3735.44 ave 3793 max 3684 min
Histogram: 5 2 4 10 3 8 8 5 1 2
Neighs:    39526.5 ave 47377 max 33513 min
Histogram: 3 9 9 3 7 4 2 5 1 5

Total # of neighbors = 1897274
Ave neighs/atom = 316.212
Ave special neighs/atom = 5
Neighbor list builds = 219738
Dangerous builds = 0
System init for write_data ...
PPPM initialization ...
  using 12-bit tables for long-range coulomb (../kspace.cpp:323)
  G vector (1/distance) = 0.233245
  grid = 15 15 15
  stencil order = 5
  estimated absolute RMS force accuracy = 0.0337445
  estimated relative force accuracy = 0.000101621
  using double precision KISS FFT
  3d grid and FFT values/proc = 1000 90
Total wall time: 2:04:12
TACC:  Shutdown complete. Exiting. 
