LAMMPS data file via write_data, version 7 Aug 2019, timestep = 600000

11000 atoms
2 atom types
10450 bonds
2 bond types
19800 angles
3 angle types
28050 dihedrals
5 dihedral types

1.6098428139220225e+01 8.3901571860776102e+01 xlo xhi
1.4180389217468221e+01 7.5819610782534539e+01 ylo yhi
4.5901946087341106e+00 3.5409805391267270e+01 zlo zhi

Masses

1 12.01
2 1.008

Pair Coeffs # lj/cut/coul/long

1 0.1094 3.39967
2 0.0157 2.64953

Bond Coeffs # harmonic

1 303.1 1.535
2 337.3 1.092

Angle Coeffs # harmonic

1 63.21 110.63
2 46.37 110.05
3 39.43 108.35

Dihedral Coeffs # harmonic

1 0.2 -1 1
2 0.25 -1 2
3 0.18 1 3
4 0.16 1 3
5 0.15 1 3

Atoms # full

10499 525 2 3.2599999999999997e-02 1.7926197640994449e+01 1.8118128787184524e+01 1.1369642882172023e+01 0 0 0
7612 381 2 3.8600000000000002e-02 1.6290700075822208e+01 2.4203319696958566e+01 1.1736882159008612e+01 1 0 0
10486 525 1 -9.2200000000000004e-02 1.8819537730433744e+01 1.8128619577505155e+01 1.1880985463617026e+01 0 0 0
8838 442 2 3.2599999999999997e-02 2.2602986093309639e+01 1.5763627528817937e+01 1.1680111812016207e+01 1 0 1
10497 525 2 3.8600000000000002e-02 1.9714401742527048e+01 1.6303320800082066e+01 1.1101880415569124e+01 0 0 0
10485 525 1 -8.0500000000000002e-02 1.9886731735166350e+01 1.7416732747118552e+01 1.1090502279226209e+01 0 0 0
10492 525 2 3.8600000000000002e-02 2.2205956833429415e+01 1.7070790503789279e+01 9.7352451751721745e+00 0 0 0
10495 525 2 3.8600000000000002e-02 2.0453383647027060e+01 1.8908681538503206e+01 9.6028204135663451e+00 0 0 0
10484 525 1 -7.9500000000000001e-02 2.0190963619780419e+01 1.7832998699569245e+01 9.6643488088971381e+00 0 0 0
10498 525 2 3.2599999999999997e-02 1.8764130482570099e+01 1.7775730738364047e+01 1.2861235955313962e+01 0 0 0
10496 525 2 3.8600000000000002e-02 2.0826212410084693e+01 1.7543534342931142e+01 1.1627113140245726e+01 0 0 0
10494 525 2 3.8600000000000002e-02 1.9287127168416298e+01 1.7739007937508980e+01 9.0166939487822795e+00 0 0 0
10483 525 1 -7.9500000000000001e-02 2.1288661647959110e+01 1.6939399712414879e+01 9.0768359246439125e+00 0 0 0
10487 525 2 3.2599999999999997e-02 2.2289658548629667e+01 1.9263269151912191e+01 7.9267006929358335e+00 0 0 0
8304 416 1 -7.9500000000000001e-02 2.3491009093768810e+01 2.0875200880188572e+01 1.4153008476906242e+01 1 1 2
10493 525 2 3.8600000000000002e-02 2.0915649122235408e+01 1.5929686726322972e+01 9.1847725083727010e+00 0 0 0
7037 352 2 3.8600000000000002e-02 1.6893449310199735e+01 1.5208106398523364e+01 6.4979231866617280e+00 0 0 -1
7604 381 1 -7.9500000000000001e-02 1.6379822778786508e+01 2.2533168037597513e+01 1.0527168362628121e+01 1 0 0
7039 352 2 3.2599999999999997e-02 1.6307168496398393e+01 1.4737804231352564e+01 8.9919255088453429e+00 0 0 -1
10491 525 2 3.8600000000000002e-02 2.1058047326215082e+01 1.6724658470040225e+01 6.8947428788509573e+00 0 0 0
10482 525 1 -8.0500000000000002e-02 2.1695676564996511e+01 1.7173923263642170e+01 7.6096505065625477e+00 0 0 0
8826 442 1 -9.2200000000000004e-02 2.3695418371363054e+01 1.5898208530075513e+01 1.1679832220757401e+01 1 0 1
8839 442 2 3.2599999999999997e-02 2.4057944736352386e+01 1.6681090531009747e+01 1.0950883787399238e+01 1 0 1
7601 381 1 -9.2200000000000004e-02 1.7509655052083723e+01 2.6234320463104471e+01 1.0509943442065552e+01 1 0 0
10500 525 2 3.2599999999999997e-02 1.9111591602464951e+01 1.9167157187406186e+01 1.1924698859092052e+01 0 0 0
10335 517 2 3.8600000000000002e-02 1.6534455381437603e+01 2.1122760950554724e+01 6.7758283620346571e+00 1 0 2
7613 381 2 3.8600000000000002e-02 1.7970371837229347e+01 2.3602607029834530e+01 1.1672067884400411e+01 1 0 0
9280 464 2 3.2599999999999997e-02 2.4386384951742095e+01 1.6944040102716766e+01 6.2869187083269367e+00 0 0 1
8835 442 2 3.8600000000000002e-02 2.3579011479420359e+01 1.4478179993132542e+01 9.3534554465126156e+00 1 0 1
10340 517 2 3.2599999999999997e-02 1.7121593713900367e+01 1.7750816443291978e+01 6.7607614190042140e+00 1 0 2
10859 543 2 3.2599999999999997e-02 2.2393530912584957e+01 1.5171265368282727e+01 5.9831521180426064e+00 0 1 0
5635 282 2 3.8600000000000002e-02 2.2916525588625419e+01 2.6700368841109277e+01 1.1603623582445074e+01 0 1 0
8307 416 2 3.2599999999999997e-02 1.9260561143600302e+01 2.0911065376953381e+01 1.3552475719852531e+01 1 1 2
10489 525 2 3.2599999999999997e-02 2.0923105365434484e+01 1.9020225385679097e+01 6.8770134889867176e+00 0 0 0
8311 416 2 3.8600000000000002e-02 2.1608858883469466e+01 2.2814842018765503e+01 1.4271870113656956e+01 1 1 2
7603 381 1 -7.9500000000000001e-02 1.6993549831173642e+01 2.3844304625472297e+01 1.1085590934476059e+01 1 0 0
8317 416 2 3.8600000000000002e-02 2.3920027793539536e+01 1.9105458399136481e+01 1.2956219374282444e+01 1 1 2
5894 295 2 3.8600000000000002e-02 2.4012523583425878e+01 2.9265756879609938e+01 1.3426844705404871e+01 0 0 -1
8313 416 2 3.8600000000000002e-02 2.1763180937083916e+01 1.9814576361256108e+01 1.3617173186257956e+01 1 1 2
8305 416 1 -8.0500000000000002e-02 2.4402288216503486e+01 2.0047058785994057e+01 1.3176569691693414e+01 1 1 2
10326 517 1 -9.2200000000000004e-02 1.7617090684589254e+01 1.8569062833170754e+01 6.3133267237680037e+00 1 0 2
7616 381 2 3.8600000000000002e-02 1.6786412037707642e+01 2.0683302422777551e+01 9.7148369193973245e+00 1 0 0
8303 416 1 -7.9500000000000001e-02 2.1964068704309781e+01 2.0882395668097892e+01 1.3535741832884321e+01 1 1 2
8085 405 1 -8.0500000000000002e-02 2.3675927969578275e+01 2.1547537453166150e+01 9.1740695057482071e+00 1 1 0
10481 525 1 -9.2200000000000004e-02 2.1864601638250711e+01 1.8652814431924142e+01 7.1561133554146474e+00 0 0 0
4197 210 2 3.8600000000000002e-02 1.9901674875530862e+01 2.4917242794894854e+01 4.7200396732508727e+00 0 1 0
10490 525 2 3.8600000000000002e-02 2.2735363727759164e+01 1.6848219792700444e+01 7.5253835683121295e+00 0 0 0
8825 442 1 -8.0500000000000002e-02 2.4344757249123649e+01 1.4591521270482936e+01 1.1309794628151018e+01 1 0 1
10160 508 2 3.2599999999999997e-02 1.6487876896957225e+01 1.9927478073258932e+01 1.2952019085494243e+01 0 0 2
7035 352 2 3.8600000000000002e-02 1.8646995113625010e+01 1.4502882633232295e+01 8.0253229903077035e+00 0 0 -1
5636 282 2 3.8600000000000002e-02 2.1835454454631019e+01 2.8407015935531646e+01 1.0449735205655518e+01 0 1 0
8840 442 2 3.2599999999999997e-02 2.4128880593377765e+01 1.6241885096182120e+01 1.2640876212412314e+01 1 0 1
8312 416 2 3.8600000000000002e-02 2.1992665652171802e+01 2.1118294336629905e+01 1.2451792094924857e+01 1 1 2
4183 210 1 -7.9500000000000001e-02 1.9076801018859758e+01 2.7574938355859672e+01 5.7526369454893409e+00 0 1 0
5639 282 2 3.2599999999999997e-02 2.3850456331619625e+01 2.6993563892856518e+01 9.4645632206364247e+00 0 1 0
7609 381 2 3.2599999999999997e-02 1.8435440798178703e+01 2.6136433869053619e+01 1.1108302720000998e+01 1 0 0
5631 282 2 3.8600000000000002e-02 2.2256445036327722e+01 2.6340729883550150e+01 1.4054944859885579e+01 0 1 0
5623 282 1 -7.9500000000000001e-02 2.0977921786334566e+01 2.7169999570299186e+01 1.2481356533534086e+01 0 1 0
5638 282 2 3.2599999999999997e-02 2.2596142569961788e+01 2.6073986146320003e+01 8.6166131257301881e+00 0 1 0
5626 282 1 -9.2200000000000004e-02 2.2833521943101275e+01 2.7000873732299834e+01 9.0201197082759279e+00 0 1 0
4193 210 2 3.8600000000000002e-02 2.0003924529342822e+01 2.7932759408656075e+01 6.2344964430560346e+00 0 1 0
5632 282 2 3.8600000000000002e-02 2.1126484684301730e+01 2.8281131635895310e+01 1.2540316685344200e+01 0 1 0
5640 282 2 3.2599999999999997e-02 2.3020948238116429e+01 2.7702762413319313e+01 8.2847489578586888e+00 0 1 0
10325 517 1 -8.0500000000000002e-02 1.6787027856198169e+01 1.9474832083597128e+01 5.3857508214653507e+00 1 0 2
10488 525 2 3.2599999999999997e-02 2.2603599628840165e+01 1.8836660065891053e+01 6.3521898715542351e+00 0 0 0
4198 210 2 3.2599999999999997e-02 2.0086602168436823e+01 2.4173583025946890e+01 7.8381301046845682e+00 0 1 0
8097 405 2 3.8600000000000002e-02 2.3901388754518745e+01 2.1305962586416879e+01 8.0996217225018299e+00 1 1 0
8099 405 2 3.2599999999999997e-02 2.2409802687754929e+01 2.3077077589230129e+01 8.5104640740569515e+00 1 1 0
4192 210 2 3.8600000000000002e-02 1.8124945269913550e+01 2.8123695735088067e+01 6.0493023638496641e+00 0 1 0
4194 210 2 3.8600000000000002e-02 1.7859977059041700e+01 2.5812415433656234e+01 5.6060450896300003e+00 0 1 0
7619 381 2 3.2599999999999997e-02 1.9170351887703482e+01 2.1112145287301050e+01 8.9981426290275621e+00 1 0 0
7129 357 2 3.2599999999999997e-02 2.2624941940981273e+01 2.9373303470409461e+01 5.8315926393376580e+00 0 0 -1
7618 381 2 3.2599999999999997e-02 1.7887856320548490e+01 2.1955834830592497e+01 8.0823154003629760e+00 1 0 0
4184 210 1 -7.9500000000000001e-02 1.8853089439729665e+01 2.6137273822972134e+01 6.1403411245360875e+00 0 1 0
5634 282 2 3.8600000000000002e-02 2.1632456517039092e+01 2.5559175323914509e+01 1.1162771534090059e+01 0 1 0
5624 282 1 -7.9500000000000001e-02 2.1872172233502109e+01 2.6625163633893141e+01 1.1333440029377213e+01 0 1 0
5625 282 1 -8.0500000000000002e-02 2.1733163239240206e+01 2.7412373671762062e+01 1.0032364982619949e+01 0 1 0
7610 381 2 3.8600000000000002e-02 1.7651013136492494e+01 2.4473225769493546e+01 9.1058975353198477e+00 1 0 0
7617 381 2 3.8600000000000002e-02 1.7901885010895604e+01 2.1011251655526380e+01 1.1093735600126717e+01 1 0 0
4199 210 2 3.2599999999999997e-02 2.0709057399147305e+01 2.3203003105378748e+01 6.3119445263713114e+00 0 1 0
4200 210 2 3.2599999999999997e-02 1.9103632773204772e+01 2.3439318259123247e+01 6.6689782595604825e+00 0 1 0
5637 282 2 3.8600000000000002e-02 2.0739325966477665e+01 2.7327477763744731e+01 9.6520669353824466e+00 0 1 0
10339 517 2 3.2599999999999997e-02 1.8529127198800456e+01 1.8225165161460993e+01 5.7531757056184727e+00 1 0 2
7602 381 1 -8.0500000000000002e-02 1.7108141588047168e+01 2.4924662911028747e+01 9.9251798346863573e+00 1 0 0
8086 405 1 -9.2200000000000004e-02 2.2307274919955066e+01 2.2276869502956615e+01 9.2109157330869209e+00 1 1 0
5622 282 1 -8.0500000000000002e-02 2.1165739927282072e+01 2.6505959855512042e+01 1.3885703887103567e+01 0 1 0
4195 210 2 3.8600000000000002e-02 1.8647283765675560e+01 2.6117052579454803e+01 7.2147299958452180e+00 0 1 0
7606 381 1 -9.2200000000000004e-02 1.8394499784408222e+01 2.1887288139606312e+01 9.0605061360208978e+00 1 0 0
4185 210 1 -8.0500000000000002e-02 2.0065234837809570e+01 2.5192791951284754e+01 5.7808481572171502e+00 0 1 0
5633 282 2 3.8600000000000002e-02 1.9943708029444196e+01 2.7040412131786390e+01 1.2193635896953005e+01 0 1 0
7620 381 2 3.2599999999999997e-02 1.8922002279211899e+01 2.2850947404023223e+01 9.3002469969392205e+00 1 0 0
8096 405 2 3.8600000000000002e-02 2.3545875933375800e+01 2.0596806415198280e+01 9.7031200589057676e+00 1 1 0
8100 405 2 3.2599999999999997e-02 2.2129429312942769e+01 2.2622081359793683e+01 1.0222845347802547e+01 1 1 0
7607 381 2 3.2599999999999997e-02 1.7597870576628530e+01 2.7016305718599003e+01 9.7612084486878317e+00 1 0 0
8098 405 2 3.2599999999999997e-02 2.1503349922916122e+01 2.1557585333671849e+01 9.0003968184678769e+00 1 1 0
4186 210 1 -9.2200000000000004e-02 2.0024328860811320e+01 2.3977075388664446e+01 6.7284249983218229e+00 0 1 0
4196 210 2 3.8600000000000002e-02 2.1109133269241543e+01 2.5609886046138119e+01 5.7994827471956176e+00 0 1 0
8301 416 1 -9.2200000000000004e-02 1.9746832535805314e+01 2.1903692876112373e+01 1.3528583062480138e+01 1 1 2
7605 381 1 -8.0500000000000002e-02 1.7410689424984248e+01 2.1474375675427506e+01 1.0156293954857876e+01 1 0 0
8309 416 2 3.2599999999999997e-02 1.9980450111943039e+01 2.2193948652000920e+01 1.2542524146808592e+01 1 1 2
8315 416 2 3.8600000000000002e-02 2.3925752329405981e+01 2.1867897484772506e+01 1.4474201210293904e+01 1 1 2
7608 381 2 3.2599999999999997e-02 1.6713944358757086e+01 2.6504882725875945e+01 1.1178242383359557e+01 1 0 0
10338 517 2 3.2599999999999997e-02 1.7983250423428494e+01 1.9234167494038473e+01 7.0689992243201800e+00 1 0 2
8302 416 1 -8.0500000000000002e-02 2.1065208488213727e+01 2.1804524096161593e+01 1.4341753205781211e+01 1 1 2
5630 282 2 3.8600000000000002e-02 2.0779185627284868e+01 2.5504323060550405e+01 1.3945730505102379e+01 0 1 0
5232 262 2 3.8600000000000002e-02 1.6655774636117499e+01 1.4498607689309516e+01 1.4011586093790676e+01 1 0 0
10327 517 2 3.2599999999999997e-02 1.6646531588750950e+01 2.3105400333601757e+01 5.8254929685916990e+00 1 0 2
8308 416 2 3.2599999999999997e-02 1.9008649021398742e+01 2.2507994235580711e+01 1.3994531137934874e+01 1 1 2
10336 517 2 3.8600000000000002e-02 1.7454330634152878e+01 2.0002445795899845e+01 4.7408347028786721e+00 1 0 2
10337 517 2 3.8600000000000002e-02 1.6164174159633347e+01 1.8801628310476069e+01 4.7333323991508269e+00 1 0 2
2629 132 2 3.2599999999999997e-02 1.6344738256435107e+01 2.5075134460454642e+01 1.3914472105387834e+01 1 0 0
10158 508 2 3.2599999999999997e-02 1.6198300682846074e+01 1.8137571421930918e+01 1.3054358959306310e+01 0 0 2
6197 310 2 3.8600000000000002e-02 1.7157466223515353e+01 2.9098805514667781e+01 1.3113086270063230e+01 0 1 1
9277 464 2 3.8600000000000002e-02 2.4511888974515365e+01 1.9118036514315257e+01 7.8501819819193051e+00 0 0 1
7025 352 1 -8.0500000000000002e-02 1.6872193478836095e+01 1.4214348015018217e+01 6.9467741714475189e+00 0 0 -1
310 16 2 3.8600000000000002e-02 2.3268502285349072e+01 1.8891897002467459e+01 1.6899154157351461e+01 1 1 -2
302 16 1 -8.0500000000000002e-02 2.3706328558753412e+01 1.9149442723812793e+01 1.7875597170715103e+01 1 1 -2
312 16 2 3.8600000000000002e-02 2.3337442826705256e+01 1.8843702845469295e+01 1.9867307090769760e+01 1 1 -2
780 39 2 3.2599999999999997e-02 1.9506240834197950e+01 1.4743842974997637e+01 2.1914259991772376e+01 0 1 1
311 16 2 3.8600000000000002e-02 2.3515333487848594e+01 2.0230010560330562e+01 1.8015699824904509e+01 1 1 -2
2635 132 2 3.8600000000000002e-02 1.7508482622718660e+01 2.5499390138604085e+01 1.8526539158154293e+01 1 0 0
10697 535 2 3.8600000000000002e-02 2.1429744398583651e+01 2.5855857360107521e+01 2.1135672502842553e+01 1 0 1
303 16 1 -7.9500000000000001e-02 2.2944100270642259e+01 1.8367387161099558e+01 1.8937271737507182e+01 1 1 -2
314 16 2 3.8600000000000002e-02 2.0955752177448087e+01 1.9345975542425794e+01 1.8825087789936859e+01 1 1 -2
313 16 2 3.8600000000000002e-02 2.3263360496447877e+01 1.7315943193172696e+01 1.8852280341297600e+01 1 1 -2
317 16 2 3.8600000000000002e-02 2.1117515521393823e+01 1.8107298380785949e+01 1.6537530589237790e+01 1 1 -2
304 16 1 -7.9500000000000001e-02 2.1400935001665580e+01 1.8358661149534825e+01 1.8764580373691700e+01 1 1 -2
318 16 2 3.2599999999999997e-02 1.9060384864373592e+01 1.6838090457185046e+01 1.6601790459199790e+01 1 1 -2
316 16 2 3.8600000000000002e-02 2.1416708795502231e+01 1.6592932147076059e+01 1.7510247648796465e+01 1 1 -2
4201 211 1 -9.2200000000000004e-02 1.7344521129448594e+01 2.8883642278829733e+01 1.9548622382056536e+01 0 1 0
305 16 1 -8.0500000000000002e-02 2.0894544570906852e+01 1.7620673892461106e+01 1.7519573300689572e+01 1 1 -2
2696 135 2 3.8600000000000002e-02 1.8883513730275133e+01 2.9438864489981693e+01 2.4882152476837270e+01 -1 0 -1
7979 399 2 3.2599999999999997e-02 2.4006668219985269e+01 1.7433739323421729e+01 2.2653751176629676e+01 0 1 0
319 16 2 3.2599999999999997e-02 1.8808036908176664e+01 1.8151475254944735e+01 1.7740765177329251e+01 1 1 -2
7300 365 2 3.2599999999999997e-02 1.7148805779511665e+01 1.5628120784043880e+01 1.9317856505221560e+01 0 0 -1
315 16 2 3.8600000000000002e-02 2.0983768872219258e+01 1.7865470859826559e+01 1.9659039109211456e+01 1 1 -2
10692 535 2 3.8600000000000002e-02 2.0515066177161877e+01 2.8508929739875974e+01 2.1285215883187767e+01 1 0 1
9008 451 2 3.2599999999999997e-02 2.3069577508800290e+01 2.1404973357382914e+01 2.2876409490789698e+01 1 0 0
8334 417 2 3.8600000000000002e-02 1.9602042904710729e+01 1.8368256594409953e+01 2.4739058966643974e+01 1 1 0
779 39 2 3.2599999999999997e-02 2.1196369672239662e+01 1.5297190213028928e+01 2.1698453309560378e+01 0 1 1
7233 362 2 3.8600000000000002e-02 1.6955596119104587e+01 2.4129167081885047e+01 2.4030983079138579e+01 1 0 0
9002 451 1 -8.0500000000000002e-02 2.3743410967803236e+01 2.3338677373576211e+01 2.2099101421025992e+01 1 0 0
7223 362 1 -7.9500000000000001e-02 1.7100990209383003e+01 2.3020833763893037e+01 2.4249892017317315e+01 1 0 0
2691 135 2 3.8600000000000002e-02 2.3029042230804130e+01 2.7646282148571395e+01 2.3891870102837316e+01 -1 0 -1
7978 399 2 3.2599999999999997e-02 2.2826755319868106e+01 1.8544901766411208e+01 2.3283923150884831e+01 0 1 0
7299 365 2 3.2599999999999997e-02 1.6811721828857475e+01 1.6791598809892303e+01 2.0577739533593565e+01 0 0 -1
4207 211 2 3.2599999999999997e-02 1.7822283136160316e+01 2.9562685577125961e+01 2.0265942758615935e+01 0 1 0
7240 362 2 3.2599999999999997e-02 2.0083538615411424e+01 2.3999706170976918e+01 2.1759175555339745e+01 1 0 0
8329 417 2 3.2599999999999997e-02 1.6922475518867405e+01 1.4935459988569844e+01 2.4719674626001712e+01 1 1 0
306 16 1 -9.2200000000000004e-02 1.9418984598532546e+01 1.7306707730793597e+01 1.7550843260957279e+01 1 1 -2
320 16 2 3.2599999999999997e-02 1.9216947008724279e+01 1.6479361831015954e+01 1.8243128359808527e+01 1 1 -2
6299 315 2 3.2599999999999997e-02 2.1433152927498014e+01 1.4185101572003852e+01 1.6324537493707723e+01 1 1 0
9661 484 1 -9.2200000000000004e-02 1.6232432059679102e+01 1.9833500413672105e+01 1.8923469093931928e+01 1 0 1
9013 451 2 3.8600000000000002e-02 2.3342587995809055e+01 2.5391539124597386e+01 2.2534173468256412e+01 1 0 0
2682 135 1 -8.0500000000000002e-02 2.3026558746804618e+01 2.8525947255655723e+01 2.4525757863310417e+01 -1 0 -1
9014 451 2 3.8600000000000002e-02 2.4366925379030675e+01 2.5504577104610512e+01 2.0538581435591148e+01 1 0 0
7966 399 1 -9.2200000000000004e-02 2.3855430903141386e+01 1.8463656838597338e+01 2.2878367903079486e+01 0 1 0
9668 484 2 3.2599999999999997e-02 1.7171642042098043e+01 1.9283067791778961e+01 1.8918438393540200e+01 1 0 1
9003 451 1 -7.9500000000000001e-02 2.4171251685749148e+01 2.4778442516677778e+01 2.2498297594204587e+01 1 0 0
8330 417 2 3.8600000000000002e-02 1.9177904188434812e+01 1.5714856683812185e+01 2.4420619944407726e+01 1 1 0
7239 362 2 3.2599999999999997e-02 1.9523374328062857e+01 2.4961543025061520e+01 2.3123306908779625e+01 1 0 0
5895 295 2 3.8600000000000002e-02 2.4234102566496961e+01 2.8599288623510681e+01 1.5010750091200398e+01 0 0 -1
8310 416 2 3.8600000000000002e-02 2.0866956733029781e+01 2.1530970263087376e+01 1.5418887738172824e+01 1 1 2
766 39 1 -9.2200000000000004e-02 2.0460701912914299e+01 1.4473024762505744e+01 2.1580899264862893e+01 0 1 1
9669 484 2 3.2599999999999997e-02 1.6586416181112622e+01 2.0870999745283552e+01 1.9124123034586599e+01 1 0 1
7298 365 2 3.2599999999999997e-02 1.6872919697789445e+01 1.5113997679637547e+01 2.1019951459934852e+01 0 0 -1
9010 451 2 3.8600000000000002e-02 2.2843507975475383e+01 2.3387911047152091e+01 2.1497425321981012e+01 1 0 0
7236 362 2 3.8600000000000002e-02 2.0085346862141428e+01 2.1947748808754916e+01 2.3246979957590085e+01 1 0 0
2622 132 1 -8.0500000000000002e-02 1.6448265975435241e+01 2.5505078095822562e+01 1.5985496418418691e+01 1 0 0
4211 211 2 3.8600000000000002e-02 1.9201172786804580e+01 2.8627698824993708e+01 1.8627053389417270e+01 0 1 0
7234 362 2 3.8600000000000002e-02 1.7913998899312432e+01 2.2627727626375702e+01 2.2180625603621742e+01 1 0 0
10700 535 2 3.2599999999999997e-02 2.2606463367131138e+01 2.4662375645549282e+01 1.9316043575994065e+01 1 0 1
7238 362 2 3.2599999999999997e-02 2.1094008951461113e+01 2.4287138783993825e+01 2.3208598525698903e+01 1 0 0
7226 362 1 -9.2200000000000004e-02 2.0112867904509852e+01 2.4100721299587889e+01 2.2875120717628050e+01 1 0 0
4339 217 2 3.2599999999999997e-02 2.4430645847278921e+01 1.5266967112666730e+01 1.7013302013580581e+01 1 2 0
7224 362 1 -7.9500000000000001e-02 1.8083863155877463e+01 2.2520620866654390e+01 2.3264901058377937e+01 1 0 0
10698 535 2 3.2599999999999997e-02 2.1574778905341585e+01 2.5431466092121788e+01 1.8092156365538955e+01 1 0 1
2681 135 1 -9.2200000000000004e-02 2.4168375446888504e+01 2.9443580235011137e+01 2.3954102928224110e+01 -1 0 -1
4209 211 2 3.2599999999999997e-02 1.7250140573921065e+01 2.7934584254629094e+01 2.0055141422461098e+01 0 1 0
7225 362 1 -8.0500000000000002e-02 1.9541116769420757e+01 2.2858710318001037e+01 2.3602494868468916e+01 1 0 0
2636 132 2 3.8600000000000002e-02 1.6537333873943776e+01 2.5086970240235274e+01 2.0726885272984703e+01 1 0 0
5628 282 2 3.2599999999999997e-02 2.1433879406431871e+01 2.8413242450065546e+01 1.4974947176473391e+01 0 1 0
7237 362 2 3.8600000000000002e-02 1.9615595723850696e+01 2.2919247420498916e+01 2.4700666369875684e+01 1 0 0
778 39 2 3.2599999999999997e-02 2.0397188417189067e+01 1.4304227431639902e+01 2.0486542709295342e+01 0 1 1
2637 132 2 3.8600000000000002e-02 1.6493746917252611e+01 2.3722354979855293e+01 1.9746160411677387e+01 1 0 0
9009 451 2 3.2599999999999997e-02 2.4336067974167037e+01 2.2311556967877308e+01 2.3883415653958146e+01 1 0 0
6300 315 2 3.2599999999999997e-02 1.9820745299399249e+01 1.4582947178496983e+01 1.5562033435175799e+01 1 1 0
2695 135 2 3.8600000000000002e-02 2.0490342669705679e+01 2.7583357303119108e+01 2.4090611096392429e+01 -1 0 -1
2631 132 2 3.8600000000000002e-02 1.7510123659164918e+01 2.5196836370003659e+01 1.6021067232030205e+01 1 0 0
9001 451 1 -9.2200000000000004e-02 2.3421652070437855e+01 2.2404346030258921e+01 2.3251053390633743e+01 1 0 0
10683 535 1 -7.9500000000000001e-02 2.1581456197429493e+01 2.8376983941868438e+01 2.0996465482150825e+01 1 0 1
2624 132 1 -7.9500000000000001e-02 1.6404967095285819e+01 2.5538212708041911e+01 1.8526543017177708e+01 1 0 0
2630 132 2 3.8600000000000002e-02 1.6465240373159389e+01 2.6550144185847898e+01 1.5919542301674481e+01 1 0 0
10696 535 2 3.8600000000000002e-02 2.0013182653746409e+01 2.6007600132422247e+01 2.0044696469268963e+01 1 0 1
10695 535 2 3.8600000000000002e-02 2.1271273365974789e+01 2.7860178736848951e+01 1.8823742590812394e+01 1 0 1
9671 484 2 3.8600000000000002e-02 1.6278409819838494e+01 2.0108232873631628e+01 1.6799267624299926e+01 1 0 1
10699 535 2 3.2599999999999997e-02 2.0960893650488362e+01 2.4261171567849637e+01 1.9047452228922637e+01 1 0 1
7235 362 2 3.8600000000000002e-02 1.7973364925781876e+01 2.1461749536836898e+01 2.3312794657958186e+01 1 0 0
4202 211 1 -8.0500000000000002e-02 1.8270266253200724e+01 2.8935157667164347e+01 1.8282606130289366e+01 0 1 0
5621 282 1 -9.2200000000000004e-02 2.0777819567732575e+01 2.7548973369464193e+01 1.4987899791806955e+01 0 1 0
10686 535 1 -9.2200000000000004e-02 2.1595448972186720e+01 2.5090757189884567e+01 1.9125671670256938e+01 1 0 1
4208 211 2 3.2599999999999997e-02 1.6386005117905164e+01 2.9318822913819318e+01 1.9426266584326839e+01 0 1 0
10684 535 1 -7.9500000000000001e-02 2.1718582533595630e+01 2.7425330327419065e+01 1.9758200880603887e+01 1 0 1
5627 282 2 3.2599999999999997e-02 2.0714735210486399e+01 2.7093493338136998e+01 1.5957449618447892e+01 0 1 0
4210 211 2 3.8600000000000002e-02 1.8007585940718574e+01 2.8195660961177154e+01 1.7501989386562236e+01 0 1 0
10694 535 2 3.8600000000000002e-02 2.2785262048082956e+01 2.7282292358348769e+01 1.9547087096254881e+01 1 0 1
9007 451 2 3.2599999999999997e-02 2.2692236693708907e+01 2.2918486802855060e+01 2.3891960055562762e+01 1 0 0
2683 135 1 -7.9500000000000001e-02 2.1655616583323351e+01 2.9210467290565514e+01 2.4704826515505552e+01 -1 0 -1
10685 535 1 -8.0500000000000002e-02 2.1137090820672860e+01 2.6100487784500721e+01 2.0153265116926605e+01 1 0 1
5629 282 2 3.2599999999999997e-02 1.9746625063256150e+01 2.7977685190603207e+01 1.4881481174439969e+01 0 1 0
4277 214 2 3.8600000000000002e-02 2.4277701700838882e+01 2.3331350959983205e+01 1.7891311182843722e+01 1 1 2
7286 365 1 -9.2200000000000004e-02 1.6517170704299289e+01 1.5784341475407890e+01 2.0223233524572670e+01 0 0 -1
2684 135 1 -7.9500000000000001e-02 2.0624206679810619e+01 2.8090426109852544e+01 2.5027082978489993e+01 -1 0 -1
2700 135 2 3.2599999999999997e-02 1.8065316290829099e+01 2.6966424513548397e+01 2.4427697515252611e+01 -1 0 -1
10693 535 2 3.8600000000000002e-02 2.1998679965637265e+01 2.7908982689002276e+01 2.1819238752117109e+01 1 0 1
8314 416 2 3.8600000000000002e-02 2.3501271234278633e+01 2.0392399662671032e+01 1.5096482581288063e+01 1 1 2
9011 451 2 3.8600000000000002e-02 2.4570896137467358e+01 2.2898790006410380e+01 2.1459721079296877e+01 1 0 0
7980 399 2 3.2599999999999997e-02 2.3940042180844152e+01 1.9052833475384144e+01 2.1939374924822204e+01 0 1 0
4274 214 2 3.8600000000000002e-02 2.4512204931229952e+01 2.3875527011452412e+01 1.5511015730285605e+01 1 1 2
2634 132 2 3.8600000000000002e-02 1.6179062918430958e+01 2.6616260688626518e+01 1.8796736410512011e+01 1 0 0
10691 535 2 3.8600000000000002e-02 2.3272126868492862e+01 2.9496154151937240e+01 2.0466003105653098e+01 1 0 1
2973 149 2 3.8600000000000002e-02 1.8891640996724661e+01 2.8975262952068576e+01 3.1138423688453699e+01 0 0 -1
8336 417 2 3.8600000000000002e-02 1.7673701523282020e+01 1.9337240255020241e+01 2.6780804324496586e+01 1 1 0
8339 417 2 3.2599999999999997e-02 1.8877968414388633e+01 2.1154594439901921e+01 2.7613553211513839e+01 1 1 0
8325 417 1 -8.0500000000000002e-02 1.8549996630456658e+01 1.9508938896248964e+01 2.6172605713173340e+01 1 1 0
10069 504 2 3.2599999999999997e-02 2.1015511111345635e+01 2.2064299743561921e+01 3.0190708030636898e+01 1 1 -1
8340 417 2 3.2599999999999997e-02 2.0009139080481450e+01 2.1182891173952932e+01 2.6320305172284321e+01 1 1 0
4462 224 1 -8.0500000000000002e-02 1.9737284359994053e+01 1.5745697280745485e+01 3.2974433070050488e+01 0 0 -1
4472 224 2 3.8600000000000002e-02 2.1551372126311044e+01 1.4708265177940076e+01 3.2584227358540772e+01 0 0 -1
4467 224 2 3.2599999999999997e-02 1.8151596490257006e+01 1.4988383546784206e+01 3.4211248531931766e+01 0 0 -1
4466 224 1 -9.2200000000000004e-02 2.3494507776134121e+01 1.7290331752801031e+01 2.9969690035375706e+01 0 0 -1
10068 504 2 3.2599999999999997e-02 2.1648452256025585e+01 2.0388817580300319e+01 3.0613617490594557e+01 1 1 -1
4471 224 2 3.8600000000000002e-02 1.9263591214338199e+01 1.5420123158551043e+01 3.2044431527332740e+01 0 0 -1
2686 135 1 -9.2200000000000004e-02 1.8205271380829416e+01 2.7452689266291237e+01 2.5389350071443069e+01 -1 0 -1
8338 417 2 3.2599999999999997e-02 2.0132065073875737e+01 1.9916255551106147e+01 2.7520395686850669e+01 1 1 0
4475 224 2 3.8600000000000002e-02 2.1077617559846118e+01 1.6137215428883401e+01 3.0615274792963618e+01 0 0 -1
4465 224 1 -8.0500000000000002e-02 2.3131389098754973e+01 1.6465952824341997e+01 3.1179129419541937e+01 0 0 -1
4463 224 1 -7.9500000000000001e-02 2.1244372517040382e+01 1.5747220219371165e+01 3.2792808760702691e+01 0 0 -1
8323 417 1 -7.9500000000000001e-02 1.8296022425580546e+01 1.7040344858836701e+01 2.5862356411906369e+01 1 1 0
8326 417 1 -9.2200000000000004e-02 1.9431170255550139e+01 2.0545190713044210e+01 2.6932706519566423e+01 1 1 0
4464 224 1 -7.9500000000000001e-02 2.1592151458265498e+01 1.6540573528074855e+01 3.1502725399455841e+01 0 0 -1
8034 402 2 3.8600000000000002e-02 1.7558078956721271e+01 1.8056564680955013e+01 3.2503008618559775e+01 1 1 0
4470 224 2 3.8600000000000002e-02 1.9402207845230915e+01 1.6806292597556940e+01 3.3146144968734795e+01 0 0 -1
4478 224 2 3.2599999999999997e-02 2.3086776504850430e+01 1.6967983989964033e+01 2.8977272148857715e+01 0 0 -1
4480 224 2 3.2599999999999997e-02 2.3186242132306866e+01 1.8326573388648772e+01 3.0055107429015081e+01 0 0 -1
4474 224 2 3.8600000000000002e-02 2.1283992855213938e+01 1.7604879049839596e+01 3.1563332745470923e+01 0 0 -1
2699 135 2 3.2599999999999997e-02 1.8381199984270069e+01 2.6546126738756538e+01 2.6022302921210930e+01 -1 0 -1
157 8 2 3.8600000000000002e-02 2.1790468324142950e+01 2.5062712504784592e+01 2.8805347489561832e+01 0 -1 -2
5435 272 2 3.8600000000000002e-02 1.7896045470668110e+01 2.2687295041748026e+01 2.9151213464115472e+01 0 0 -1
7974 399 2 3.8600000000000002e-02 2.3425536809486438e+01 1.8375615965509077e+01 2.5676388530358658e+01 0 1 0
8035 402 2 3.8600000000000002e-02 1.7069773406314226e+01 1.9169554713462873e+01 3.1300425729411963e+01 1 1 0
8337 417 2 3.8600000000000002e-02 1.8141044056557245e+01 1.9970008981429775e+01 2.5334731135241157e+01 1 1 0
2970 149 2 3.8600000000000002e-02 1.7855995404074079e+01 2.9089485816590624e+01 2.8564935703801382e+01 0 0 -1
4473 224 2 3.8600000000000002e-02 2.1765434357476025e+01 1.6178629757157882e+01 3.3763755600741021e+01 0 0 -1
8321 417 1 -9.2200000000000004e-02 1.7673687163852591e+01 1.4737823742131164e+01 2.5515343925167109e+01 1 1 0
8328 417 2 3.2599999999999997e-02 1.7238610542009141e+01 1.4619485514162720e+01 2.6461077611672408e+01 1 1 0
8332 417 2 3.8600000000000002e-02 1.7976964920332239e+01 1.7020576165609757e+01 2.6919704705505175e+01 1 1 0
10074 504 2 3.8600000000000002e-02 2.4134778236197292e+01 2.3595941756541304e+01 3.3207307919184238e+01 1 1 -1
10061 504 1 -9.2200000000000004e-02 2.1865961041834051e+01 2.1456130997955167e+01 3.0475164516736896e+01 1 1 -1
8324 417 1 -7.9500000000000001e-02 1.9304421516241195e+01 1.8199012041211034e+01 2.5743223675699959e+01 1 1 0
152 8 2 3.8600000000000002e-02 2.4213793836131316e+01 2.5529493036799895e+01 2.9215484633787121e+01 0 -1 -2
8335 417 2 3.8600000000000002e-02 2.0192260745168426e+01 1.7954838887457541e+01 2.6300748408581129e+01 1 1 0
156 8 2 3.8600000000000002e-02 2.2076076251234447e+01 2.5546223698151294e+01 2.7205559541850128e+01 0 -1 -2
2697 135 2 3.8600000000000002e-02 1.9223747403239486e+01 2.8892299464068458e+01 2.6548066550832544e+01 -1 0 -1
2698 135 2 3.2599999999999997e-02 1.7259654899939033e+01 2.7906125911053337e+01 2.5724954240362372e+01 -1 0 -1
7964 399 1 -7.9500000000000001e-02 2.4463955740658630e+01 1.8301357959345758e+01 2.5351980371406171e+01 0 1 0
10070 504 2 3.8600000000000002e-02 2.3528078404135250e+01 2.1540872154077178e+01 3.1881279762851705e+01 1 1 -1