LAMMPS data file via write_data, version 7 Aug 2019, timestep = 2600000

11000 atoms
2 atom types
10450 bonds
2 bond types
19800 angles
3 angle types
28050 dihedrals
5 dihedral types

1.6256145579898693e+01 8.3743854420096596e+01 xlo xhi
1.4323768708987849e+01 7.5676231291013153e+01 ylo yhi
4.6618843544939246e+00 3.5338115645506576e+01 zlo zhi

Masses

1 12.01
2 1.008

Pair Coeffs # lj/cut/coul/long

1 0.1094 3.39967
2 0.0157 2.64953

Bond Coeffs # harmonic

1 303.1 1.535
2 337.3 1.092

Angle Coeffs # harmonic

1 63.21 110.63
2 46.37 110.05
3 39.43 108.35

Dihedral Coeffs # harmonic

1 0.2 -1 1
2 0.25 -1 2
3 0.18 1 3
4 0.16 1 3
5 0.15 1 3

Atoms # full

150 8 2 3.8600000000000002e-02 1.7821000254122179e+01 1.6205742630867828e+01 1.0668303704619166e+01 0 -1 -1
151 8 2 3.8600000000000002e-02 1.8815122118466928e+01 1.5679353527698789e+01 1.2122343881268925e+01 0 -1 -1
142 8 1 -8.0500000000000002e-02 1.7834093695702251e+01 1.5610243021050797e+01 1.1568456684020669e+01 0 -1 -1
4769 239 2 3.2599999999999997e-02 2.0238552927155578e+01 1.8057975874003279e+01 5.1235028568245555e+00 0 0 1
155 8 2 3.8600000000000002e-02 1.7636816680829028e+01 1.8080627514657053e+01 1.3014446022515738e+01 0 -1 -1
685 35 1 -8.0500000000000002e-02 2.0849823212126552e+01 1.6249285247893994e+01 9.8258618109564289e+00 0 0 0
683 35 1 -7.9500000000000001e-02 2.1386433089735672e+01 1.8581738523161263e+01 1.0951860103373155e+01 0 0 0
10761 539 1 -9.2200000000000004e-02 2.3616155411131377e+01 1.4512254955942435e+01 1.3106352446839537e+01 0 1 2
686 35 1 -9.2200000000000004e-02 2.1371530337328764e+01 1.5231092343786788e+01 8.8507010756272120e+00 0 0 0
2725 137 1 -8.0500000000000002e-02 1.6505668950492044e+01 2.0885227729921056e+01 8.6460865397482642e+00 -1 0 0
143 8 1 -7.9500000000000001e-02 1.6702615981475606e+01 1.6182975908556678e+01 1.2469417497384317e+01 0 -1 -1
144 8 1 -7.9500000000000001e-02 1.6700909898634698e+01 1.7682668710558673e+01 1.2524457257268647e+01 0 -1 -1
697 35 2 3.8600000000000002e-02 2.0747070291679162e+01 1.5674071660388591e+01 1.0809580199051819e+01 0 0 0
699 35 2 3.2599999999999997e-02 2.2306951062058971e+01 1.4803680601934765e+01 9.1831429310305204e+00 0 0 0
2770 139 2 3.8600000000000002e-02 2.3996185376231313e+01 1.9055197655674320e+01 1.3376020260279549e+01 0 0 -1
154 8 2 3.8600000000000002e-02 1.6638633955801300e+01 1.8053257597611093e+01 1.1481701596025417e+01 0 -1 -1
684 35 1 -7.9500000000000001e-02 2.1802647984318043e+01 1.7501365997428170e+01 9.9556451435777973e+00 0 0 0
10769 539 2 3.2599999999999997e-02 2.4508832383948249e+01 1.4438919342254165e+01 1.2486866655275580e+01 0 1 2
693 35 2 3.8600000000000002e-02 2.2150442942491605e+01 1.9300234231691416e+01 1.0799964473228492e+01 0 0 0
2773 139 2 3.8600000000000002e-02 2.4204953578430061e+01 1.9529785075202355e+01 1.1082695263685661e+01 0 0 -1
687 35 2 3.2599999999999997e-02 2.0122935517141812e+01 2.1281177676555643e+01 1.1151657717547092e+01 0 0 0
696 35 2 3.8600000000000002e-02 1.9817262548196606e+01 1.6558828445649297e+01 9.6242988996480427e+00 0 0 0
692 35 2 3.8600000000000002e-02 2.1384786956851372e+01 1.8188238617889631e+01 1.1994738855467256e+01 0 0 0
682 35 1 -8.0500000000000002e-02 2.0027004475859886e+01 1.9215812930885672e+01 1.0535536102573715e+01 0 0 0
700 35 2 3.2599999999999997e-02 2.1506826629531428e+01 1.5562276264351350e+01 7.8007142393210307e+00 0 0 0
758 38 2 3.2599999999999997e-02 2.3932493429175583e+01 2.1174853665056499e+01 1.4182953254526836e+01 0 -2 -1
695 35 2 3.8600000000000002e-02 2.1901649260438184e+01 1.7970187669087441e+01 9.0224776211646471e+00 0 0 0
698 35 2 3.2599999999999997e-02 2.0601185644964744e+01 1.4365611224130824e+01 8.8496338454563830e+00 0 0 0
10767 539 2 3.2599999999999997e-02 2.2772646486229192e+01 1.4773360077335012e+01 1.2479094347420782e+01 0 1 2
690 35 2 3.8600000000000002e-02 2.0067482742130654e+01 1.9616395317509312e+01 9.5174862285633157e+00 0 0 0
689 35 2 3.2599999999999997e-02 1.9853394051037675e+01 2.0214756945540639e+01 1.2532748309806276e+01 0 0 0
681 35 1 -9.2200000000000004e-02 1.9659752090061556e+01 2.0429243064391290e+01 1.1538088977188735e+01 0 0 0
691 35 2 3.8600000000000002e-02 1.9194145689830616e+01 1.8526709628751910e+01 1.0539710852906506e+01 0 0 0
688 35 2 3.2599999999999997e-02 1.8632355013185183e+01 2.0538458196846822e+01 1.1385289586547927e+01 0 0 0
694 35 2 3.8600000000000002e-02 2.2806233022486094e+01 1.7114555547824651e+01 1.0164114325317236e+01 0 0 0
5487 275 2 3.2599999999999997e-02 2.2347209827101597e+01 2.1893484805525464e+01 9.6015096773122579e+00 1 0 1
152 8 2 3.8600000000000002e-02 1.6747117093193754e+01 1.5768838411886103e+01 1.3498530733256324e+01 0 -1 -1
8020 401 2 3.2599999999999997e-02 1.6536595850721621e+01 1.8493457733033360e+01 4.7735451838245124e+00 1 1 -2
10768 539 2 3.2599999999999997e-02 2.3819691426669181e+01 1.5273940024031971e+01 1.3834633571706684e+01 0 1 2
8002 401 1 -8.0500000000000002e-02 1.7398452182955165e+01 1.4952576818665994e+01 5.6682981531112144e+00 1 1 -2
8010 401 2 3.8600000000000002e-02 1.7470999625346906e+01 1.5899829795234401e+01 6.3095182650900048e+00 1 1 -2
4767 239 2 3.2599999999999997e-02 2.1057844210673007e+01 1.9662570230683130e+01 5.7828666446775685e+00 0 0 1
2771 139 2 3.8600000000000002e-02 2.3817890288542870e+01 1.7499519429492707e+01 1.2612495370628679e+01 0 0 -1
4768 239 2 3.2599999999999997e-02 1.9351644000835499e+01 1.9575264568086737e+01 5.6372794080348347e+00 0 0 1
5488 275 2 3.2599999999999997e-02 2.4068203457598660e+01 2.1807797147396116e+01 9.5437841580944358e+00 1 0 1
2739 137 2 3.2599999999999997e-02 1.8507425791940541e+01 2.1581148486667619e+01 9.0486955085164240e+00 -1 0 0
2762 139 1 -8.0500000000000002e-02 2.4566762787727161e+01 1.8270086455652308e+01 1.2916562721953492e+01 0 0 -1
8008 401 2 3.2599999999999997e-02 1.9605150895671756e+01 1.4972350898477606e+01 5.6994233226739590e+00 1 1 -2
2736 137 2 3.8600000000000002e-02 1.6838710760801774e+01 2.0615731033568075e+01 7.6837821993087267e+00 -1 0 0
2726 137 1 -9.2200000000000004e-02 1.7465532885994048e+01 2.1979932787702651e+01 9.1937758060725034e+00 -1 0 0
4761 239 1 -9.2200000000000004e-02 2.0261290979057929e+01 1.9180873376917958e+01 5.1667260119194296e+00 0 0 1
2737 137 2 3.8600000000000002e-02 1.6658619453344137e+01 1.9990965433542620e+01 9.2489689060887912e+00 -1 0 0
5800 290 2 3.2599999999999997e-02 1.6462240835449190e+01 2.2145918611591149e+01 1.3998834730805394e+01 1 1 0
5493 275 2 3.8600000000000002e-02 2.4395906223797340e+01 2.5102069763941230e+01 9.6070072505613702e+00 1 0 1
4234 212 2 3.8600000000000002e-02 2.3482760868686860e+01 2.9250638744317410e+01 9.4728650500472149e+00 1 0 -3
5539 277 2 3.2599999999999997e-02 1.9548291501301652e+01 2.5477201697483864e+01 1.0838938289199696e+01 1 0 -3
859 43 2 3.2599999999999997e-02 2.3334277216223672e+01 2.9234777996935613e+01 1.3794665717274452e+01 1 0 0
7418 371 2 3.2599999999999997e-02 1.7156430319341769e+01 2.6767233417719041e+01 1.3095384608094486e+01 1 1 1
597 30 2 3.8600000000000002e-02 2.3974917796926778e+01 2.6355668357086401e+01 4.7585198293157731e+00 1 1 0
589 30 2 3.2599999999999997e-02 1.9916002301619166e+01 2.3210024072390681e+01 6.7219932412086809e+00 1 1 0
2740 137 2 3.2599999999999997e-02 1.7308105783387902e+01 2.2065809352421521e+01 1.0210987286960973e+01 -1 0 0
5481 275 1 -9.2200000000000004e-02 2.3281387024236892e+01 2.2512747369109640e+01 9.6228969587766393e+00 1 0 1
7420 371 2 3.2599999999999997e-02 1.6285192809501378e+01 2.6763674218639430e+01 1.4629484627973779e+01 1 1 1
5484 275 1 -7.9500000000000001e-02 2.4659925175494369e+01 2.5526311841572827e+01 7.3994950431281419e+00 1 0 1
5540 277 2 3.2599999999999997e-02 2.0230590843023862e+01 2.3966231736564506e+01 1.0373530677391674e+01 1 0 -3
592 30 2 3.8600000000000002e-02 2.2473096168973946e+01 2.4074850742862040e+01 5.5585232229971338e+00 1 1 0
7405 371 1 -8.0500000000000002e-02 1.6604383518481047e+01 2.8756969690778725e+01 1.3656699525043290e+01 1 1 1
5524 277 1 -7.9500000000000001e-02 2.1148957320135054e+01 2.5999215222656026e+01 1.3138307284608825e+01 1 0 -3
5533 277 2 3.8600000000000002e-02 2.2499079312181770e+01 2.5322900670357058e+01 1.4657923600576098e+01 1 0 -3
10755 538 2 3.8600000000000002e-02 1.6981715517328652e+01 2.8001576012102888e+01 9.0151899477358093e+00 1 -1 1
5489 275 2 3.2599999999999997e-02 2.3289005953666432e+01 2.2985710746896661e+01 1.0566649521051296e+01 1 0 1
10749 538 2 3.2599999999999997e-02 1.7605289915379227e+01 2.9433667552717814e+01 5.0548650076993864e+00 1 -1 1
587 30 2 3.2599999999999997e-02 1.9459278718871911e+01 2.4888333661666422e+01 6.3680995504771669e+00 1 1 0
582 30 1 -8.0500000000000002e-02 2.0477069738142752e+01 2.3918335334437735e+01 4.7294455097784951e+00 1 1 0
5799 290 2 3.2599999999999997e-02 1.7129218776296497e+01 2.3724606359859216e+01 1.3731272004373439e+01 1 1 0
4230 212 2 3.8600000000000002e-02 2.0789750568068577e+01 2.9634296851087981e+01 7.6957533947341208e+00 1 0 -3
7414 371 2 3.8600000000000002e-02 1.7395494768151902e+01 2.8852380659868590e+01 1.1633120344926816e+01 1 1 1
7404 371 1 -7.9500000000000001e-02 1.6662712432635153e+01 2.9423392366155063e+01 1.2218424564440895e+01 1 1 1
5490 275 2 3.8600000000000002e-02 2.2432305578373168e+01 2.4232052533615878e+01 8.6353627095652818e+00 1 0 1
5494 275 2 3.8600000000000002e-02 2.3701644334098951e+01 2.5952607452232947e+01 7.1272122537058458e+00 1 0 1
4223 212 1 -7.9500000000000001e-02 2.1438470935583862e+01 2.8819468643509929e+01 9.7218978615983467e+00 1 0 -3
7406 371 1 -9.2200000000000004e-02 1.6328459295521533e+01 2.7216343121816006e+01 1.3653999022524602e+01 1 1 1
5482 275 1 -8.0500000000000002e-02 2.3294284665453993e+01 2.3602177106583387e+01 8.5344632282058370e+00 1 0 1
588 30 2 3.2599999999999997e-02 1.8500318013003000e+01 2.3519183828620474e+01 5.7238829912104006e+00 1 1 0
759 38 2 3.2599999999999997e-02 2.3039792906271341e+01 2.2750768708236770e+01 1.4635096273763581e+01 0 -2 -1
5523 277 1 -7.9500000000000001e-02 2.1541335222162125e+01 2.5731095075473426e+01 1.4597059868585893e+01 1 0 -3
4232 212 2 3.8600000000000002e-02 2.1764944164577486e+01 2.7826881121260470e+01 9.9558256555236753e+00 1 0 -3
5536 277 2 3.8600000000000002e-02 2.0238376978706896e+01 2.4004001931588945e+01 1.2770058092889530e+01 1 0 -3
4229 212 2 3.2599999999999997e-02 1.9356260263557651e+01 2.7749234000109890e+01 8.7997604979106789e+00 1 0 -3
10752 538 2 3.8600000000000002e-02 1.6818698029548155e+01 2.7551849136484293e+01 6.5556996495732873e+00 1 -1 1
583 30 1 -7.9500000000000001e-02 2.1807541948278278e+01 2.4700657349934040e+01 4.9647537578454122e+00 1 1 0
4222 212 1 -8.0500000000000002e-02 2.1122626615252859e+01 2.8768278181861259e+01 8.1564681520420521e+00 1 0 -3
7417 371 2 3.8600000000000002e-02 1.7552476428880411e+01 2.8925512611352183e+01 1.4216031007684006e+01 1 1 1
4221 212 1 -9.2200000000000004e-02 2.0053488056686390e+01 2.7789448858031626e+01 7.9287626318579694e+00 1 0 -3
581 30 1 -9.2200000000000004e-02 1.9503103821671008e+01 2.3875483871776879e+01 5.9740514170901324e+00 1 1 0
593 30 2 3.8600000000000002e-02 2.1508209702647825e+01 2.5614951681432188e+01 5.5203485674080568e+00 1 1 0
5535 277 2 3.8600000000000002e-02 2.0287810445077159e+01 2.6575588924179730e+01 1.3061056129184498e+01 1 0 -3
4228 212 2 3.2599999999999997e-02 2.0487591312508723e+01 2.6817081749684981e+01 7.8055659034726785e+00 1 0 -3
2738 137 2 3.2599999999999997e-02 1.7325087070878023e+01 2.2948781449042571e+01 8.6905962374631542e+00 -1 0 0
5538 277 2 3.2599999999999997e-02 2.1287007625527021e+01 2.5386034645175382e+01 1.0392776672046647e+01 1 0 -3
5537 277 2 3.8600000000000002e-02 2.1880739131214121e+01 2.4045379914857371e+01 1.2262005775691163e+01 1 0 -3
5534 277 2 3.8600000000000002e-02 2.1958498636317270e+01 2.6528903702184984e+01 1.2621106117368093e+01 1 0 -3
4227 212 2 3.2599999999999997e-02 1.9477715445832821e+01 2.7977023304843996e+01 7.0568124978936959e+00 1 0 -3
4233 212 2 3.8600000000000002e-02 2.0641630316965870e+01 2.9178382075125441e+01 1.0385388990219123e+01 1 0 -3
5798 290 2 3.2599999999999997e-02 1.8095260028729793e+01 2.2690345142256120e+01 1.4614347532699618e+01 1 1 0
5525 277 1 -8.0500000000000002e-02 2.0914963232471468e+01 2.4696100023429615e+01 1.2364104387311144e+01 1 0 -3
4231 212 2 3.8600000000000002e-02 2.1973810073036908e+01 2.8555508706203387e+01 7.6043841788710047e+00 1 0 -3
5526 277 1 -9.2200000000000004e-02 2.0457379621521081e+01 2.4900162110661061e+01 1.0900111696780570e+01 1 0 -3
5483 275 1 -7.9500000000000001e-02 2.4537867553784345e+01 2.4524771960943657e+01 8.6422918562162678e+00 1 0 1
5491 275 2 3.8600000000000002e-02 2.3215504039136153e+01 2.3141291034653229e+01 7.5808018218324484e+00 1 0 1
5786 290 1 -9.2200000000000004e-02 1.7018524843190807e+01 2.2959171781702651e+01 1.4483573518694614e+01 1 1 0
10742 538 1 -8.0500000000000002e-02 1.6413168855092042e+01 2.9604960250687164e+01 6.8366249181317835e+00 1 -1 1
4235 212 2 3.8600000000000002e-02 2.2989754246268845e+01 2.9641340059932745e+01 1.0993764353081581e+01 1 0 -3
8898 445 2 3.2599999999999997e-02 2.0373979511866260e+01 2.8311875133477777e+01 4.6696457083677139e+00 1 -2 1
8981 450 1 -9.2200000000000004e-02 1.7182886487597077e+01 1.6794708297089901e+01 2.0945618137758629e+01 0 0 1
9675 484 2 3.8600000000000002e-02 1.9593822627539019e+01 1.8261935086793518e+01 1.6433271060652437e+01 1 -1 3
4652 233 2 3.8600000000000002e-02 2.0943617165903561e+01 1.8259028721323290e+01 2.1571224769499434e+01 0 1 1
4656 233 2 3.8600000000000002e-02 2.3015184893405639e+01 1.6450702387909971e+01 2.3967435016418111e+01 0 1 1
4649 233 2 3.2599999999999997e-02 2.1681731897105117e+01 2.1610807037525063e+01 2.2910050329190188e+01 0 1 1
4647 233 2 3.2599999999999997e-02 2.0614598838773681e+01 2.0739337634266576e+01 2.1886494221778957e+01 0 1 1
4641 233 1 -9.2200000000000004e-02 2.1242641641831575e+01 2.0627090435461504e+01 2.2746785912968996e+01 0 1 1
9672 484 2 3.8600000000000002e-02 1.9695157171017637e+01 2.0867952940488493e+01 1.7224640760167418e+01 1 -1 3
9662 484 1 -8.0500000000000002e-02 2.1649785624461607e+01 1.9754216295790663e+01 1.7512870035777041e+01 1 -1 3
9671 484 2 3.8600000000000002e-02 2.2078625329996356e+01 1.9038627480477508e+01 1.8164773781126485e+01 1 -1 3
8989 450 2 3.2599999999999997e-02 1.7551753871958997e+01 1.6441584193019072e+01 2.1847322633315784e+01 0 0 1
9663 484 1 -7.9500000000000001e-02 2.0084651334746077e+01 1.9966547208809111e+01 1.7766026400707737e+01 1 -1 3
9677 484 2 3.8600000000000002e-02 1.7317385295963362e+01 1.9513927743012584e+01 1.8014924828843082e+01 1 -1 3
2402 121 1 -8.0500000000000002e-02 2.2268348072926340e+01 1.5170438051797531e+01 1.7332699949346100e+01 0 2 -1
8995 450 2 3.8600000000000002e-02 1.7456580623732158e+01 1.9653309508934072e+01 2.0685938749117295e+01 0 0 1
9674 484 2 3.8600000000000002e-02 1.9359097672915389e+01 1.7953006714804825e+01 1.8097452199202795e+01 1 -1 3
9664 484 1 -7.9500000000000001e-02 1.9196040681858623e+01 1.8730933252412651e+01 1.7312483844969101e+01 1 -1 3
9673 484 2 3.8600000000000002e-02 1.9953450213799357e+01 2.0172803817234652e+01 1.8789354209190911e+01 1 -1 3
9665 484 1 -8.0500000000000002e-02 1.7737619444050161e+01 1.9096454991359181e+01 1.7110884974696887e+01 1 -1 3
4650 233 2 3.8600000000000002e-02 2.3014230853529096e+01 1.9484883419702367e+01 2.3422084231526572e+01 0 1 1
4657 233 2 3.8600000000000002e-02 2.4207646253447475e+01 1.7676559677229754e+01 2.3508665423669395e+01 0 1 1
9676 484 2 3.8600000000000002e-02 1.7618395954094026e+01 1.9794443034626710e+01 1.6289937697169805e+01 1 -1 3
215 11 2 3.8600000000000002e-02 1.8900236978714215e+01 1.4489415074981885e+01 2.3190955437720532e+01 0 -1 -5
9679 484 2 3.2599999999999997e-02 1.7477152217158341e+01 1.7437626569598997e+01 1.5746817685522535e+01 1 -1 3
9000 450 2 3.2599999999999997e-02 1.8122699726333877e+01 2.1820621682503308e+01 2.0145307217935660e+01 0 0 1
2412 121 2 3.8600000000000002e-02 2.3873247624693693e+01 1.5118955344841558e+01 1.8871907042867953e+01 0 2 -1
204 11 1 -7.9500000000000001e-02 1.9838026415665865e+01 1.4978111236056035e+01 2.3264525298335396e+01 0 -1 -5
214 11 2 3.8600000000000002e-02 2.0022649148996582e+01 1.5633022131928755e+01 2.2461018073602048e+01 0 -1 -5
4653 233 2 3.8600000000000002e-02 2.1270903844720959e+01 1.7812596816654224e+01 2.3153238327405539e+01 0 1 1
4642 233 1 -8.0500000000000002e-02 2.2386800521618575e+01 1.9586744471435114e+01 2.2543424079614049e+01 0 1 1
4651 233 2 3.8600000000000002e-02 2.3091297143808561e+01 1.9923875429853513e+01 2.1772465756330792e+01 0 1 1
4654 233 2 3.8600000000000002e-02 2.3473435288698209e+01 1.7445914219770977e+01 2.1199808793521193e+01 0 1 1
4643 233 1 -7.9500000000000001e-02 2.1780502203712871e+01 1.8182618443612760e+01 2.2274056869617475e+01 0 1 1
9678 484 2 3.2599999999999997e-02 1.7011392326274720e+01 1.7029879119540219e+01 1.7469644220929418e+01 1 -1 3
9668 484 2 3.2599999999999997e-02 2.2956596365816115e+01 1.9425799009347848e+01 1.5717951765268891e+01 1 -1 3
9666 484 1 -9.2200000000000004e-02 1.7009547836123286e+01 1.7771051944792731e+01 1.6673256472112911e+01 1 -1 3
203 11 1 -7.9500000000000001e-02 1.9709263245147270e+01 1.5741179273174987e+01 2.4548566297008062e+01 0 -1 -5
209 11 2 3.2599999999999997e-02 1.6897978548754647e+01 1.5338208130657206e+01 2.3857648893148184e+01 0 -1 -5
4648 233 2 3.2599999999999997e-02 2.0683228586457844e+01 2.0444777707218289e+01 2.3695575903677906e+01 0 1 1
9670 484 2 3.8600000000000002e-02 2.2159049057319777e+01 2.0714022071720560e+01 1.7709182143731176e+01 1 -1 3
4644 233 1 -7.9500000000000001e-02 2.2809309156164801e+01 1.7072788246705361e+01 2.1973691702858318e+01 0 1 1
4655 233 2 3.8600000000000002e-02 2.2370760773375441e+01 1.6059037581189617e+01 2.1697217333235866e+01 0 1 1
8988 450 2 3.2599999999999997e-02 1.7975597764355999e+01 1.7429397699982442e+01 2.0569761096994604e+01 0 0 1
8984 450 1 -7.9500000000000001e-02 1.6565171927320637e+01 1.9964815737990115e+01 2.1220708483891407e+01 0 0 1
8985 450 1 -8.0500000000000002e-02 1.7003350347436157e+01 2.1142872519822419e+01 2.2079116664868454e+01 0 0 1
2411 121 2 3.8600000000000002e-02 2.2845860761556146e+01 1.4855140437519271e+01 1.6439992226035560e+01 0 2 -1
8987 450 2 3.2599999999999997e-02 1.7077179452992521e+01 1.6033247491017669e+01 2.0208304612155782e+01 0 0 1
2417 121 2 3.8600000000000002e-02 2.4073374884211837e+01 1.8360782726772143e+01 1.9202355577682809e+01 0 2 -1
2403 121 1 -7.9500000000000001e-02 2.3190586809963278e+01 1.5873561347923188e+01 1.8365324490679704e+01 0 2 -1
4645 233 1 -8.0500000000000002e-02 2.3708487224271025e+01 1.6749421029150962e+01 2.3149948479504701e+01 0 1 1
9661 484 1 -9.2200000000000004e-02 2.1926773447417382e+01 1.9333758963304724e+01 1.6029697239065829e+01 1 -1 3
760 38 2 3.2599999999999997e-02 2.3451278308842003e+01 2.1667458231472757e+01 1.5907214949003295e+01 0 -2 -1
2413 121 2 3.8600000000000002e-02 2.2658829990681138e+01 1.6485082700354255e+01 1.9115655131452755e+01 0 2 -1
9669 484 2 3.2599999999999997e-02 2.1668738694864295e+01 1.8254862363719152e+01 1.5941039811243520e+01 1 -1 3
2410 121 2 3.8600000000000002e-02 2.1488802734492708e+01 1.5808691952493193e+01 1.6868123145990534e+01 0 2 -1
9667 484 2 3.2599999999999997e-02 2.1156400216949145e+01 1.9885516273691362e+01 1.5423394843169875e+01 1 -1 3
211 11 2 3.8600000000000002e-02 1.8415437440656550e+01 1.7366781205507579e+01 2.3857917885223763e+01 0 -1 -5
8996 450 2 3.8600000000000002e-02 1.7763637710539857e+01 2.0889243933801993e+01 2.2870043984331584e+01 0 0 1
202 11 1 -8.0500000000000002e-02 1.8427916507651652e+01 1.6664954584207401e+01 2.4718483486176819e+01 0 -1 -5
2414 121 2 3.8600000000000002e-02 2.3629610705829201e+01 1.7310734901772399e+01 1.6889616588527058e+01 0 2 -1
8992 450 2 3.8600000000000002e-02 1.6567731323833986e+01 1.8649041537128532e+01 2.2906097412820742e+01 0 0 1
2404 121 1 -7.9500000000000001e-02 2.4113891189572016e+01 1.6834628156058461e+01 1.7721757081651052e+01 0 2 -1
201 11 1 -9.2200000000000004e-02 1.7082032370549260e+01 1.5925967983130167e+01 2.4784228816533489e+01 0 -1 -5
208 11 2 3.2599999999999997e-02 1.6371333645082352e+01 1.6680505609388195e+01 2.4903593556798043e+01 0 -1 -5
4658 233 2 3.2599999999999997e-02 2.4399820136476215e+01 1.4704594829120850e+01 2.2559781467355720e+01 0 1 1
213 11 2 3.8600000000000002e-02 2.0622826235854742e+01 1.6374893978707977e+01 2.4672010487947936e+01 0 -1 -5
5532 277 2 3.8600000000000002e-02 2.1038195031911712e+01 2.4857521225509775e+01 1.4956861224864085e+01 1 0 -3
1800 90 2 3.2599999999999997e-02 1.8590417857761810e+01 2.8761901417494002e+01 1.9096776598923640e+01 -1 0 -1
3327 167 2 3.2599999999999997e-02 1.7218566634466178e+01 2.6760532269144626e+01 2.2892467301091855e+01 -1 2 2
3331 167 2 3.8600000000000002e-02 1.9339437661271994e+01 2.8310057431791449e+01 2.3129958579911150e+01 -1 2 2
6134 307 2 3.8600000000000002e-02 2.2993642691622302e+01 2.7223833961100347e+01 2.0876392459831177e+01 3 0 2
5527 277 2 3.2599999999999997e-02 2.0190798979934968e+01 2.8157336095885860e+01 1.6703764560226833e+01 1 0 -3
5530 277 2 3.8600000000000002e-02 2.2142666628732727e+01 2.6610156845684948e+01 1.6367589020217451e+01 1 0 -3
6124 307 1 -7.9500000000000001e-02 2.1966335890683339e+01 2.7503367963770458e+01 2.0646767492269010e+01 3 0 2
3329 167 2 3.2599999999999997e-02 1.6382310196876983e+01 2.7960641407822592e+01 2.3929612672833127e+01 -1 2 2
3330 167 2 3.8600000000000002e-02 1.8018168955029513e+01 2.9046484681112162e+01 2.2242719248720803e+01 -1 2 2
8986 450 1 -9.2200000000000004e-02 1.7566455150343714e+01 2.2265222936670874e+01 2.1082400219307758e+01 0 0 1
8998 450 2 3.2599999999999997e-02 1.8182584148989577e+01 2.3015485539428589e+01 2.1605779342251601e+01 0 0 1
8999 450 2 3.2599999999999997e-02 1.6766664582143093e+01 2.2797796716512511e+01 2.0571793636652210e+01 0 0 1
853 43 2 3.8600000000000002e-02 2.4658883906792532e+01 2.8311200044290906e+01 1.6124435417276327e+01 1 0 0
5521 277 1 -9.2200000000000004e-02 2.0127969764790311e+01 2.7412868486380873e+01 1.5926873008104261e+01 1 0 -3
575 29 2 3.8600000000000002e-02 2.0535153727119084e+01 2.3480491094436683e+01 2.4509390395120676e+01 0 0 -4
6121 307 1 -9.2200000000000004e-02 2.1236732204969329e+01 2.4662737263089145e+01 2.0131061248009026e+01 3 0 2
6123 307 1 -7.9500000000000001e-02 2.1621634294515172e+01 2.6992364379614358e+01 1.9205852013077418e+01 3 0 2
5785 290 1 -8.0500000000000002e-02 1.6482438011815759e+01 2.3526224812997398e+01 1.5824188210482482e+01 1 1 0
5788 290 2 3.2599999999999997e-02 1.6781977432005014e+01 2.5706803776968361e+01 2.0680468542753943e+01 1 1 0
6136 307 2 3.8600000000000002e-02 2.0813692913788223e+01 2.9247187262188405e+01 2.0932409729828311e+01 3 0 2
6127 307 2 3.2599999999999997e-02 2.0273407727227656e+01 2.5026732377706686e+01 2.0419140831016339e+01 3 0 2
5791 290 2 3.8600000000000002e-02 1.7383902778635907e+01 2.6990497532950990e+01 1.8052441828088192e+01 1 1 0
5784 290 1 -7.9500000000000001e-02 1.7320689177697719e+01 2.4530657179411612e+01 1.6662196533095408e+01 1 1 0
5782 290 1 -8.0500000000000002e-02 1.7417855202459567e+01 2.6056657010767253e+01 1.8630683510535221e+01 1 1 0
6133 307 2 3.8600000000000002e-02 2.2233647633717347e+01 2.7636103050802983e+01 1.8519011593523707e+01 3 0 2
5794 290 2 3.8600000000000002e-02 1.8310153077716603e+01 2.4087727565724542e+01 1.6862442656398756e+01 1 1 0
5790 290 2 3.8600000000000002e-02 1.8431756716639129e+01 2.5748478701644085e+01 1.8804234627624481e+01 1 1 0
6129 307 2 3.2599999999999997e-02 2.1703920114087438e+01 2.4907064259255847e+01 2.1058026888663942e+01 3 0 2
6135 307 2 3.8600000000000002e-02 2.1275720067381272e+01 2.6992903161601681e+01 2.1299845684604559e+01 3 0 2
6125 307 1 -8.0500000000000002e-02 2.1850234652577704e+01 2.9023733683360248e+01 2.0770506474351567e+01 3 0 2
6138 307 2 3.2599999999999997e-02 2.2276965699137182e+01 2.9103344938029025e+01 2.2837706240177607e+01 3 0 2
6128 307 2 3.2599999999999997e-02 2.1317218064514385e+01 2.3606795247212581e+01 1.9787898331228490e+01 3 0 2
6126 307 1 -9.2200000000000004e-02 2.2679992836446196e+01 2.9527375354028287e+01 2.1925891889772640e+01 3 0 2
567 29 2 3.2599999999999997e-02 1.8132366330677122e+01 2.2470254583740250e+01 2.4720582597581977e+01 0 0 -4
6131 307 2 3.8600000000000002e-02 2.2836279265594076e+01 2.5180677580052652e+01 1.9042830986367818e+01 3 0 2
3322 167 1 -8.0500000000000002e-02 1.8280244691480139e+01 2.8712319415597062e+01 2.3215731368291383e+01 -1 2 2
6130 307 2 3.8600000000000002e-02 2.1331038219530100e+01 2.5137370193647897e+01 1.8057520204197793e+01 3 0 2
6132 307 2 3.8600000000000002e-02 2.0572031793900759e+01 2.7151199470473475e+01 1.8991411357754451e+01 3 0 2
6122 307 1 -8.0500000000000002e-02 2.1871051856297626e+01 2.5477152821645035e+01 1.8990728522035198e+01 3 0 2
5795 290 2 3.8600000000000002e-02 1.7416169753358080e+01 2.5551175622808294e+01 1.6160560578594914e+01 1 1 0
6137 307 2 3.8600000000000002e-02 2.2031342920566026e+01 2.9542698484761587e+01 1.9802119063889734e+01 3 0 2
3321 167 1 -9.2200000000000004e-02 1.7358037733683247e+01 2.7574599955081077e+01 2.3655965113910518e+01 -1 2 2
5529 277 2 3.2599999999999997e-02 1.9648198308514733e+01 2.6539695278546880e+01 1.6419771347133405e+01 1 0 -3
3328 167 2 3.2599999999999997e-02 1.7835364619894971e+01 2.7084424720704824e+01 2.4497089416405078e+01 -1 2 2
5789 290 2 3.2599999999999997e-02 1.7213663106215510e+01 2.7301653512898557e+01 2.0348720784008556e+01 1 1 0
5793 290 2 3.8600000000000002e-02 1.6413590618913219e+01 2.4104334747350585e+01 1.8613734907042012e+01 1 1 0
578 29 2 3.2599999999999997e-02 2.2552528684932220e+01 2.2338831589383233e+01 2.4828939829552244e+01 0 0 -4
6140 307 2 3.2599999999999997e-02 2.3750633733740454e+01 2.9327899240571256e+01 2.1814536120759183e+01 3 0 2
5781 290 1 -9.2200000000000004e-02 1.6768564200669736e+01 2.6409422057487696e+01 1.9951040351310304e+01 1 1 0
5783 290 1 -7.9500000000000001e-02 1.6585141314794058e+01 2.4951647750223778e+01 1.7939140636943741e+01 1 1 0
1797 90 2 3.8600000000000002e-02 1.7241043773485352e+01 2.9485931443896206e+01 1.7351805550812735e+01 -1 0 -1
577 29 2 3.8600000000000002e-02 2.2572153934028620e+01 2.4956595618781051e+01 2.4782192510283203e+01 0 0 -4
5522 277 1 -8.0500000000000002e-02 2.1561046610659353e+01 2.6961752104017954e+01 1.5507300083477183e+01 1 0 -3
10370 519 2 3.8600000000000002e-02 2.4615076369991918e+01 2.4019128361569656e+01 2.3111775980079749e+01 1 0 1
5528 277 2 3.2599999999999997e-02 1.9473057508406921e+01 2.7758428430841686e+01 1.5137678830821391e+01 1 0 -3
746 38 1 -9.2200000000000004e-02 2.3765884455716332e+01 2.2026254482401580e+01 1.4909068013366115e+01 0 -2 -1
5531 277 2 3.8600000000000002e-02 2.2125131446450368e+01 2.7758728836546535e+01 1.5086348975092145e+01 1 0 -3
4779 239 2 3.2599999999999997e-02 2.0134260858270277e+01 2.1540494604623593e+01 2.9854614846142379e+01 0 0 0
4776 239 2 3.8600000000000002e-02 2.0777321802979621e+01 2.1360733982014342e+01 3.2136822589066718e+01 0 0 0
4765 239 1 -8.0500000000000002e-02 1.9698218388744305e+01 2.1415049562390454e+01 3.1928491563987851e+01 0 0 0
4778 239 2 3.2599999999999997e-02 1.8459082525358848e+01 2.1893054796810727e+01 3.0156660281457146e+01 0 0 0
4775 239 2 3.8600000000000002e-02 1.9638680715036958e+01 1.9333425877561133e+01 3.1508255274090249e+01 0 0 0
4770 239 2 3.8600000000000002e-02 2.1112294446165066e+01 1.9284175038094336e+01 3.3732286291565970e+01 0 0 0
4764 239 1 -7.9500000000000001e-02 1.9055616714081321e+01 2.0062832740946650e+01 3.2132609861118979e+01 0 0 0
3946 198 1 -9.2200000000000004e-02 2.1255435265065643e+01 1.5845155361950301e+01 3.3244837261529739e+01 -1 0 -1
4774 239 2 3.8600000000000002e-02 1.8091651127215513e+01 2.0004839188047029e+01 3.1628436955866910e+01 0 0 0
3942 198 1 -8.0500000000000002e-02 2.1618663036696333e+01 1.5723751400897436e+01 2.8696088553750013e+01 -1 0 -1
3957 198 2 3.8600000000000002e-02 1.9330672670479078e+01 1.5927304782406232e+01 3.2151779775265240e+01 -1 0 -1
3943 198 1 -7.9500000000000001e-02 2.1042841858758294e+01 1.6031523755306576e+01 3.0091294678783132e+01 -1 0 -1
3945 198 1 -8.0500000000000002e-02 2.0176083097964955e+01 1.5237692178118118e+01 3.2372272486740385e+01 -1 0 -1
3956 198 2 3.8600000000000002e-02 1.9738145334223784e+01 1.4370628443907117e+01 3.2938240747816138e+01 -1 0 -1
3503 176 1 -7.9500000000000001e-02 2.3621192213868262e+01 2.1025393644741349e+01 3.0778332245134013e+01 1 0 -4
4771 239 2 3.8600000000000002e-02 2.0684592023442971e+01 2.0790941055989677e+01 3.4441859867090471e+01 0 0 0
3512 176 2 3.8600000000000002e-02 2.3186978611742699e+01 2.1942628405935515e+01 3.0441466501458155e+01 1 0 -4
3516 176 2 3.8600000000000002e-02 2.3292172744715973e+01 2.0635787133443376e+01 2.8030329106245695e+01 1 0 -4
3948 198 2 3.2599999999999997e-02 2.0392446118524912e+01 1.7083624194145706e+01 2.7429772110647018e+01 -1 0 -1
4763 239 1 -7.9500000000000001e-02 1.8985311941098697e+01 1.9590926200959530e+01 3.3628290107585187e+01 0 0 0
4762 239 1 -8.0500000000000002e-02 2.0385137402206617e+01 1.9733829945989033e+01 3.4346445413813768e+01 0 0 0
4773 239 2 3.8600000000000002e-02 1.8559436988260479e+01 1.8636297253261887e+01 3.3745323094275072e+01 0 0 0
3513 176 2 3.8600000000000002e-02 2.2789540183217571e+01 2.0252731205729336e+01 3.0823930825428427e+01 1 0 -4
3502 176 1 -8.0500000000000002e-02 2.4176913009770850e+01 2.1281635149029125e+01 3.2163366651878377e+01 1 0 -4
3952 198 2 3.8600000000000002e-02 2.0113489364737060e+01 1.6595655677456378e+01 2.9973498640369659e+01 -1 0 -1
212 11 2 3.8600000000000002e-02 1.9598150203770579e+01 1.4977174917558296e+01 2.5388339926620215e+01 0 -1 -5
4772 239 2 3.8600000000000002e-02 1.8345799471477214e+01 2.0354469921812345e+01 3.4244606007532880e+01 0 0 0
3510 176 2 3.8600000000000002e-02 2.3334140429504846e+01 2.1580970583893599e+01 3.2696149235661338e+01 1 0 -4
3960 198 2 3.2599999999999997e-02 2.1614552408599117e+01 1.6819263706290229e+01 3.2807229480496062e+01 -1 0 -1