LAMMPS (7 Aug 2019)
units			real
atom_style		full
bond_style		harmonic
angle_style             harmonic
dihedral_style		harmonic
pair_style              lj/cut/coul/long 10.0
pair_modify             mix arithmetic shift yes
kspace_style  	        pppm 1e-04
boundary      	        p p p
special_bonds 		amber

read_data	    	Data.NPTRelax1
  orthogonal box = (-2.39001 -2.39001 -2.39001) to (38.39 38.39 38.39)
  4 by 3 by 4 MPI processor grid
  reading atoms ...
  6000 atoms
  reading velocities ...
  6000 velocities
  scanning bonds ...
  4 = max bonds/atom
  scanning angles ...
  6 = max angles/atom
  scanning dihedrals ...
  3 = max dihedrals/atom
  reading bonds ...
  5000 bonds
  reading angles ...
  7000 angles
  reading dihedrals ...
  3000 dihedrals
  4 = max # of 1-2 neighbors
  3 = max # of 1-3 neighbors
  4 = max # of 1-4 neighbors
  5 = max # of special neighbors
  special bonds CPU = 0.00749707 secs
  read_data CPU = 0.11863 secs

variable 		MassinGrams equal mass(all)/6.02e23
variable 		VolumeCubicCentimeter equal vol*1.0e-24
variable 		Density equal v_MassinGrams/v_VolumeCubicCentimeter
variable		SpecificVolume equal 1.0/v_Density
variable                px equal pxx
variable                py equal pyy
variable                pz equal pzz
variable                p equal press

reset_timestep 		0

timestep  	    	1

thermo_style    	custom step time atoms temp press vol etotal epair emol evdwl ecoul elong ebond eangle enthalpy pe ke v_Density lx ly lz cpu
thermo 		    	1000

fix                     PX all ave/time 1 100000 100000 v_px mode scalar file px.dat
fix                     PY all ave/time 1 100000 100000 v_py mode scalar file py.dat
fix                     PZ all ave/time 1 100000 100000 v_pz mode scalar file pz.dat
fix                     P  all ave/time 1 100000 100000 v_p mode scalar file p.dat

fix                     NPT4 all npt temp 295 295 100 iso 1 1 1000
run                     4000000
PPPM initialization ...
  using 12-bit tables for long-range coulomb (../kspace.cpp:323)
  G vector (1/distance) = 0.233608
  grid = 15 15 15
  stencil order = 5
  estimated absolute RMS force accuracy = 0.0333745
  estimated relative force accuracy = 0.000100506
  using double precision KISS FFT
  3d grid and FFT values/proc = 1000 90
Neighbor list info ...
  update every 1 steps, delay 10 steps, check yes
  max neighbors/atom: 2000, page size: 100000
  master list distance cutoff = 12
  ghost atom cutoff = 12
  binsize = 6, bins = 7 7 7
  1 neighbor lists, perpetual/occasional/extra = 1 0 0
  (1) pair lj/cut/coul/long, perpetual
      attributes: half, newton on
      pair build: half/bin/newton
      stencil: half/bin/3d/newton
      bin: standard
Per MPI rank memory allocation (min/avg/max) = 9.524 | 9.548 | 9.909 Mbytes
Step Time Atoms Temp Press Volume TotEng E_pair E_mol E_vdwl E_coul E_long E_bond E_angle Enthalpy PotEng KinEng v_Density Lx Ly Lz CPU 
       0            0     6000    298.87322   -63.662294     67817.62    5265.3328   -3881.4646    3802.3825   -1647.5981    20972.021   -23205.888    1710.1748     1780.027    5202.3676   -79.082154     5344.415   0.78483901    40.780027    40.780027    40.780027            0 
    1000         1000     6000    291.90401   -48.291289    69174.302    5223.4078   -3804.2288    3807.8444   -1628.6514    21027.701   -23203.278    1757.4877    1746.1421    5174.6898    3.6155294    5219.7923   0.76944635    41.050167    41.050167    41.050167    1.5018251 
    2000         2000     6000    294.88385    98.583717    70422.232    5364.0395   -3756.1071    3847.0691    -1563.448    21011.354   -23204.013    1759.0784    1782.9116    5465.2886    90.961974    5273.0776   0.75581123    41.295551    41.295551    41.295551     3.001358 
    3000         3000     6000    295.11291    -163.8579    70705.245    5326.7323   -3727.7547    3777.3135   -1670.9739    21141.024   -23197.805     1743.405     1738.754     5157.768    49.558757    5277.1735   0.75278593    41.350796    41.350796    41.350796    4.4700179 
    4000         4000     6000    295.13543    826.09839    70619.344    5391.4223   -3723.2751    3837.1211   -1542.0766      21017.7   -23198.898    1767.6553    1763.0394    6242.2298    113.84606    5277.5762   0.75370162    41.334044    41.334044    41.334044    5.9514961 
    5000         5000     6000    293.69151   -7.3960166    69918.126    5296.8266   -3776.7069    3821.7773   -1634.2602    21055.431   -23197.878    1731.8689    1786.6328     5289.285    45.070366    5251.7563   0.76126058    41.196779    41.196779    41.196779    7.4166889 
    6000         6000     6000     298.2763   -472.50662    69979.042    5458.1148   -3703.5836    3827.9576   -1629.5321    21129.834   -23203.885    1745.8129    1759.6292    4975.8875    124.37399    5333.7408   0.76059792     41.20874     41.20874     41.20874    8.9016399 
    7000         7000     6000    292.84042   -11.156166    69252.486    5190.6222   -3851.3539    3805.4391   -1613.6063     20966.95   -23204.698    1716.9187    1772.8381    5179.3548   -45.914848    5236.5371   0.76857766    41.065627    41.065627    41.065627    10.391673 
    8000         8000     6000    295.83695    922.89339    69398.555    5281.0647   -3834.6587    3825.6027   -1588.6311    20953.987   -23200.015    1727.2541    1783.8173    6215.1314   -9.0560301    5290.1208   0.76695997    41.094479    41.094479    41.094479    11.882757 
    9000         9000     6000    289.13191   -774.68622    69850.703    5294.2366   -3730.4985    3854.5132   -1629.1687    21095.153   -23196.483    1756.4918    1784.6572    4505.0631    124.01469    5170.2219   0.76199539    41.183532    41.183532    41.183532    13.376029 
   10000        10000     6000     294.7648    -1079.554    68930.683     5293.497   -3815.5787    3838.1272   -1700.8285    21089.848   -23204.598    1719.9888    1801.3726    4208.2395    22.548464    5270.9486   0.77216577     41.00192     41.00192     41.00192    14.864365 
   11000        11000     6000    293.20102    24.053773    69299.183    5229.9528   -3801.4399    3788.4074   -1717.0556    21117.648   -23202.033    1641.3482    1844.4148     5254.263   -13.032531    5242.9854   0.76805975    41.074855    41.074855    41.074855    16.326501 
   12000        12000     6000    293.21182    265.77051    69183.722    5208.7028   -3793.6821    3759.2064   -1659.0127    21062.778   -23197.447    1685.8561    1778.7539    5476.8583   -34.475638    5243.1785   0.76934157     41.05203     41.05203     41.05203    17.821294 
   13000        13000     6000    295.19447    104.16719    68178.568    5354.0675   -3797.3758    3872.8114   -1678.2744    21082.845   -23201.947    1756.5003    1797.6195    5457.6425    75.435555     5278.632   0.78068394    40.852248    40.852248    40.852248    19.320649 
   14000        14000     6000    294.73638   -116.42312     68028.78    5241.6107   -3840.4245    3811.5948   -1650.5932    21017.373   -23207.204    1733.6789    1766.5704    5126.1038   -28.829644    5270.4403   0.78240288    40.822309    40.822309    40.822309    20.807953 
   15000        15000     6000    294.53184   -553.91798    68438.321    5267.0445   -3835.6571    3835.9187   -1697.8751    21068.269   -23206.051    1749.8656    1768.1882    4714.1774   0.26157695    5266.7829   0.77772091    40.904063    40.904063    40.904063    22.309907 
   16000        16000     6000    288.98334   -1239.5621    68721.182    5201.3195   -3847.4541    3881.2083   -1570.9375    20923.499   -23200.016    1762.4472    1794.5725    3958.9957     33.75416    5167.5653   0.77451976    40.960339    40.960339    40.960339    23.801026 
   17000        17000     6000    299.29907   -99.134942    69314.775    5415.6685   -3753.0775    3816.7162   -1582.3387    21034.982   -23205.721    1701.6467    1816.2906    5315.4545    63.638679    5352.0298   0.76788699    41.077935    41.077935    41.077935    25.303211 
   18000        18000     6000    296.11219   -125.01669    69795.052    5325.2134   -3752.6892    3782.8601   -1571.4621    21017.593    -23198.82    1683.9164    1787.9326    5197.9603    30.170913    5295.0425   0.76260296    41.172592    41.172592    41.172592    26.797326 
   19000        19000     6000    296.73897    329.48031     68113.85     5230.359   -3870.4085    3794.5169   -1728.0881    21066.668   -23208.989    1712.8681    1780.8629     5557.655   -75.891566    5306.2505   0.78142571    40.839317    40.839317    40.839317    28.301162 
   20000        20000     6000    294.54082    465.41881    69530.489    5338.4495   -3817.7456    3889.2515   -1687.1431    21075.224   -23205.827    1776.9302    1802.8785    5810.3985    71.505929    5266.9435   0.76550466    41.120504    41.120504    41.120504     29.78889 
   21000        21000     6000    293.88748    898.79362    68431.397    5285.5229   -3801.0774    3831.3399    -1669.303    21077.407   -23209.182    1713.0956    1802.8558    6182.5205    30.262477    5255.2605    0.7777996    40.902684    40.902684    40.902684    31.306223 
   22000        22000     6000    292.66153   -327.91107    68480.574    5128.1246   -3910.9942    3805.7805   -1669.7969    20966.744   -23207.941    1683.7296    1802.8616    4800.6336   -105.21371    5233.3383   0.77724106    40.912479    40.912479    40.912479     32.82396 
   23000        23000     6000    298.46569    190.71448    69315.765    5373.3835    -3781.415    3817.6711   -1639.6492    21062.819   -23204.585    1716.9101    1784.5076    5566.1766    36.256048    5337.1274   0.76787601    41.078131    41.078131    41.078131    34.324671 
   24000        24000     6000    294.98208   -250.44073    69219.132    5292.4211    -3809.899    3827.4861   -1737.0504    21129.803   -23202.652    1747.9286    1769.2858    5039.6037    17.587029    5274.8341     0.768948    41.059033    41.059033    41.059033    35.831268 
   25000        25000     6000    294.28324   -424.53926    69189.147    5272.2932   -3804.3146    3814.2703   -1567.7708    20968.376    -23204.92    1733.4001    1787.1689    4843.9107    9.9557812    5262.3374   0.76928125    41.053103    41.053103    41.053103    37.330255 
   26000        26000     6000    293.61518    489.61303     68852.31    5237.8657   -3877.8967     3865.371   -1617.0852    20942.471   -23203.282    1729.3413    1823.5528    5729.5059   -12.525604    5250.3913    0.7730447    40.986375    40.986375    40.986375    38.799607 
   27000        27000     6000    298.69138    851.37597    69382.831    5331.7269   -3789.2927    3779.8563    -1640.918    21054.699   -23203.073    1664.0477    1817.7604     6193.215    -9.436359    5341.1633   0.76713378    41.091375    41.091375    41.091375    40.277573 
   28000        28000     6000    294.44003   -391.41597    68622.604    5286.3103   -3791.9171    3813.0864   -1638.7164     21050.07   -23203.271     1672.435    1823.8158     4894.585    21.169236    5265.1411   0.77563238    40.940744    40.940744    40.940744    41.753331 
   29000        29000     6000    295.09439   -809.80126    69496.991    5239.8681   -3815.8551    3778.8809   -1619.3664    21006.693   -23203.181    1695.5002    1780.7078    4419.1002   -36.974234    5276.8423   0.76587364    41.113899    41.113899    41.113899    43.230556 
   30000        30000     6000     293.2054   -138.99855    70397.848    5282.0318   -3790.1138    3829.0819    -1581.185    20997.916   -23206.845    1720.8881    1802.8878    5139.3247      38.9681    5243.0637   0.75607302    41.290784    41.290784    41.290784    44.721779 
   31000        31000     6000     297.8278    262.23412    69456.748    5317.2241   -3803.5682    3795.0715   -1648.3167    21049.156   -23204.408     1693.962    1789.6091    5582.8556   -8.4967746    5325.7209   0.76631739    41.105962    41.105962    41.105962    46.208555 
   32000        32000     6000    290.73484   -215.58787    69790.386    5207.1778    -3728.889    3737.1814   -1717.5765    21194.494   -23205.807    1676.7412     1740.999    4987.7479    8.2924745    5198.8853   0.76265395    41.171675    41.171675    41.171675    47.699865 
   33000        33000     6000    291.07689    1035.9767    69330.184    5195.3447   -3776.4771    3766.8198   -1651.7898    21073.197   -23197.884    1717.2524    1751.7819    6242.8307   -9.6572204    5205.0019   0.76771631    41.080979    41.080979    41.080979    49.196272 
   34000        34000     6000    296.46586    264.81814    69656.709    5424.8147   -3734.5169    3857.9648   -1679.9134    21147.532   -23202.136    1709.1559    1835.8188     5693.836    123.44794    5301.3668   0.76411755    41.145371    41.145371    41.145371     50.68343 
   35000        35000     6000    297.07223   -711.66853    70104.994    5326.8051   -3792.7249    3807.3202   -1609.0395     21018.08   -23201.765    1663.1501     1830.908    4599.1885    14.595311    5312.2098   0.75923141    41.233448    41.233448    41.233448    52.157264 
   36000        36000     6000    292.19091        430.8    70013.771    5323.1215   -3695.2974    3793.4963   -1548.6171    21055.927   -23202.607    1683.4551    1800.9021    5763.0024    98.198906    5224.9226   0.76022064    41.215555    41.215555    41.215555    53.618034 
   37000        37000     6000    292.86739    352.70161    70230.167    5448.0637   -3627.4403    3838.4846   -1597.7786    21174.241   -23203.903    1689.9586    1822.5362     5809.313    211.04425    5237.0194   0.75787821    41.257974    41.257974    41.257974    55.096366 
   38000        38000     6000    290.47077   -329.01564    70396.925    5293.4264   -3638.6435    3737.9065   -1687.3691    21250.872   -23202.147    1631.1971    1792.7858    4955.6369    99.263048    5194.1634   0.75608293    41.290603    41.290603    41.290603     56.57077 
   39000        39000     6000    293.06912     207.0995    69836.705    5361.4949   -3670.5057     3791.374   -1670.0508    21200.182   -23200.637    1697.7668    1775.9962    5572.4251    120.86823    5240.6267   0.76214812    41.180781    41.180781    41.180781    58.058107 
   40000        40000     6000    292.37108    11.100558    68394.566    5174.4841   -3762.2643     3708.604   -1737.9053    21181.901    -23206.26    1641.9982    1742.8781    5185.5565   -53.660287    5228.1444   0.77821845    40.895344    40.895344    40.895344    59.550069 
   41000        41000     6000    294.52804   -1111.1274    70767.788    5427.6412   -3643.2204    3804.1467   -1673.1561    21231.383   -23201.447    1716.6591    1760.2724    4280.8738    160.92624     5266.715   0.75212064    41.362985    41.362985    41.362985     61.02764 
   42000        42000     6000    295.55046    99.293857    70285.222    5273.8544   -3788.0336    3776.8902   -1559.1716    20974.327   -23203.189    1718.4184     1738.508    5375.6343   -11.143381    5284.9977   0.75728457    41.268752    41.268752    41.268752    62.540524 
   43000        43000     6000    294.73119   -312.86295    69595.177     5354.604   -3721.3326    3805.5889   -1693.2939    21175.217   -23203.256    1688.5671    1814.7838    5037.0562    84.256307    5270.3477   0.76479314    41.133252    41.133252    41.133252    64.016566 
   44000        44000     6000    292.58927   -613.34084    70398.843    5318.8159   -3697.1347    3783.9045   -1604.8794    21113.417   -23205.673    1703.1256    1762.9019    4689.1019     86.76979    5232.0461   0.75606233    41.290978    41.290978    41.290978    65.498216 
   45000        45000     6000    297.79459   -435.49452    70287.845    5439.2319   -3684.8736    3798.9784   -1616.8229    21138.344   -23206.395    1739.8073    1751.7672    4992.8168    114.10485     5325.127    0.7572563    41.269266    41.269266    41.269266    66.971585 
   46000        46000     6000    295.93918   -377.38682    70334.714    5397.2558   -3685.4525    3790.7594   -1625.8853    21141.459   -23201.026    1737.5184    1749.0834    5010.1476    105.30692    5291.9488   0.75675169    41.278437    41.278437    41.278437     68.44811 
   47000        47000     6000    298.98415    -91.27524    69848.082    5490.6559   -3702.9112    3847.1685   -1669.3989    21170.489   -23204.001    1693.5327    1858.0882    5397.6772    144.25735    5346.3986   0.76202398    41.183017    41.183017    41.183017     69.96099 
   48000        48000     6000     295.1596    420.18436    70029.642    5287.8767   -3732.7962    3742.6646   -1550.7431    21015.787    -23197.84    1669.3048    1751.3614    5717.0154    9.8683491    5278.0083   0.76004835    41.218669    41.218669    41.218669     71.43624 
   49000        49000     6000    293.03065   -358.84023    69900.188    5328.2351   -3672.4569    3760.7532   -1672.4226    21202.848   -23202.882      1684.78    1752.4994    4962.4253    88.296292    5239.9388   0.76145594    41.193255    41.193255    41.193255    72.912332 
   50000        50000     6000    295.46959    1438.8979     69327.85    5259.8889   -3746.9782    3723.3156   -1609.5999    21063.935   -23201.313    1648.0075    1760.4676    6714.7234   -23.662643    5283.5515   0.76774217    41.080518    41.080518    41.080518    74.393711 
   51000        51000     6000    293.22843    39.330753    71327.965    5400.1875   -3642.2842    3798.9963   -1602.0445    21159.254   -23199.494    1670.6381     1808.747    5441.1011    156.71204    5243.4754   0.74621382    41.471837    41.471837    41.471837    75.861426 
   52000        52000     6000     299.5021    604.41514    70247.382    5449.1495   -3669.8194    3763.3084   -1653.0907    21191.897   -23208.625    1654.5052    1792.0134    6068.3644    93.489011    5355.6605   0.75769249    41.261345    41.261345    41.261345    77.347413 
   53000        53000     6000    297.70356     180.8419    69402.859    5331.7888   -3800.5317    3808.8214   -1641.1777    21045.684   -23205.038    1711.8764    1774.3805    5514.8315    8.2896963    5323.4991   0.76691241    41.095328    41.095328    41.095328    78.856959 
   54000        54000     6000    296.35719   -43.201826    69898.393    5384.2521   -3719.1523    3803.9809   -1643.4179    21124.169   -23199.904      1707.57    1793.2635    5340.2124    84.828523    5299.4236    0.7614755    41.192903    41.192903    41.192903    80.375033 
   55000        55000     6000    293.61988   -610.10848    69551.712    5270.8717   -3754.1762    3774.5727   -1672.0441    21117.858    -23199.99     1697.549    1767.5325    4652.0141    20.396435    5250.4753   0.76527108    41.124687    41.124687    41.124687    81.866666 
   56000        56000     6000    290.24906    91.472517    69168.598    5211.3601   -3714.0764    3735.2377   -1679.9204    21168.035   -23202.191    1698.4496    1738.1038    5303.6333     21.16134    5190.1987    0.7695098    41.049039    41.049039    41.049039    83.358073 
   57000        57000     6000    295.74836    600.54754    69108.893    5406.1161   -3718.3615     3835.941   -1669.3024    21156.405   -23205.464    1726.8013    1793.3879    6011.3973    117.57946    5288.5366   0.77017459    41.037224    41.037224    41.037224    84.861112 
   58000        58000     6000    293.11377   -515.78715    69857.443    5311.2821   -3718.1399    3787.9969   -1600.3149    21082.007   -23199.832    1687.6472    1802.5234    4785.7986    69.857023    5241.4251   0.76192187    41.184857    41.184857    41.184857    86.373181 
   59000        59000     6000    296.52187    917.05701    69782.792    5411.9685   -3718.1542    3827.7543   -1672.6309    21161.463   -23206.987    1755.4164    1768.6472     6345.267    109.60006    5302.3684   0.76273695    41.170181    41.170181    41.170181     87.84193 
   60000        60000     6000    293.88105   -63.536499    68220.228    5217.1395    -3809.241    3771.2349   -1634.7428     21036.73   -23211.228    1750.3712    1713.6084    5153.9256   -38.006012    5255.1455   0.78020721    40.860567    40.860567    40.860567    89.310886 
   61000        61000     6000    294.19173     353.2078    69283.388    5251.2813   -3740.5212    3731.1015   -1663.7263    21127.768   -23204.563    1702.5511     1724.647    5608.1721   -9.4196909     5260.701   0.76823485    41.071734    41.071734    41.071734    90.781319 
   62000        62000     6000    297.52895   -171.88966    69373.576    5304.8496   -3768.1018    3752.5745   -1718.3223    21153.659   -23203.439    1684.9749     1753.769    5130.9415   -15.527266    5320.3768   0.76723613    41.089548    41.089548    41.089548    92.243258 
   63000        63000     6000    294.47032    449.88835    69489.877    5284.7856   -3783.5595    3802.6623   -1654.7621    21074.157   -23202.954    1721.2913    1795.8086    5740.7198    19.102789    5265.6828   0.76595205    41.112496    41.112496    41.112496    93.732514 
   64000        64000     6000    293.95454   -666.89071    69762.429    5440.8495   -3730.8669    3915.2567   -1669.5184    21137.736   -23199.085    1772.6902    1830.8965    4762.3459    184.38979    5256.4597   0.76295958    41.166176    41.166176    41.166176    95.216175 
   65000        65000     6000    298.08449    822.09713    69727.271    5435.9418   -3723.7483    3829.3792   -1568.0908    21044.479   -23200.137    1718.3962    1793.3701    6271.9329    105.63088    5330.3109   0.76334428     41.15926     41.15926     41.15926    96.696912 
   66000        66000     6000    298.59585    76.083268    70489.495    5445.2894   -3689.7475    3795.5819   -1630.7382    21138.028   -23197.037    1745.4795    1745.7325    5523.5043    105.83444     5339.455   0.75509001    41.308694    41.308694    41.308694    98.194322 
   67000        67000     6000    299.10815    334.23609    69272.288    5406.6987   -3730.6794    3788.7622   -1651.4775     21123.27   -23202.472     1735.896    1753.6701    5744.3659    58.082784     5348.616   0.76835796     41.06954     41.06954     41.06954    99.711772 
   68000        68000     6000    294.49981   -437.87969    69281.393    5317.5336   -3753.8861    3805.2096   -1658.8974     21105.84   -23200.828    1698.0009    1788.1753    4875.1008    51.323472    5266.2101   0.76825697     41.07134     41.07134     41.07134    101.20477 
   69000        69000     6000    291.71217   -77.353138    70622.804    5289.4128   -3696.6025    3769.6534   -1614.2257    21120.536   -23202.913    1661.9096    1770.1934    5209.7421     73.05092    5216.3619   0.75366469    41.334719    41.334719    41.334719    102.73903 
   70000        70000     6000    296.63812    993.52098    70071.467    5389.9791   -3678.8345    3764.3665   -1636.3963    21156.288   -23198.726    1692.6116    1766.4863    6405.2785    85.532002    5304.4471   0.75959468    41.226874    41.226874    41.226874    104.20245 
   71000        71000     6000     294.4109   -223.46163    70185.477    5374.0865   -3704.6444    3814.1108   -1620.6866    21119.481   -23203.439    1729.9788    1776.0395     5145.355    109.46632    5264.6202   0.75836079    41.249221    41.249221    41.249221    105.70624 
   72000        72000     6000    299.76948   -434.14998     69729.06    5518.6417   -3659.5495    3817.7495   -1693.1262     21236.01   -23202.433    1724.5411    1793.6492    5077.1429    158.20001    5360.4417    0.7633247    41.159612    41.159612    41.159612    107.22915 
   73000        73000     6000    299.78007   -297.78528    69713.792    5513.3418   -3663.7901    3816.5009   -1597.4947    21134.433   -23200.728    1695.0782    1813.2312    5210.5822    152.71073     5360.631   0.76349188    41.156607    41.156607    41.156607    108.72363 
   74000        74000     6000    295.92028    603.45775    69612.749    5217.3749   -3738.9624    3664.7265   -1680.5603    21142.659   -23201.061    1619.6845    1756.6488    5830.0237   -74.235899    5291.6108   0.76460008    41.136714    41.136714    41.136714     110.1872 
   75000        75000     6000    292.56134    688.78248    70497.992    5342.8345   -3685.8802    3797.1681    -1543.349     21056.63   -23199.161    1757.1824     1733.168    6050.9999    111.28791    5231.5466   0.75499901    41.310354    41.310354    41.310354    111.66287 
   76000        76000     6000    290.42346    158.82689    69238.756    5199.4584   -3793.5357    3799.6768    -1632.477      21046.6   -23207.659    1714.3037    1791.8505     5359.838    6.1411327    5193.3172   0.76873006    41.062913    41.062913    41.062913    113.15706 
   77000        77000     6000    293.04918    219.33086    70618.266    5448.9452   -3604.1417    3812.8168   -1596.7066    21193.607   -23201.042    1685.5057     1826.771     5674.833    208.67516    5240.2701   0.75371312    41.333833    41.333833    41.333833    114.62366 
   78000        78000     6000     296.0356    270.84995    69497.933    5329.4972   -3717.2632    3753.0875    -1576.472    21059.527   -23200.318    1671.1571    1775.6532    5604.0188    35.824374    5293.6729   0.76586326    41.114085    41.114085    41.114085    116.10296 
   79000        79000     6000      290.742   -222.42274    70315.547    5271.1168   -3679.4899    3751.5933   -1622.6072     21149.12   -23206.003     1683.115    1763.4293    5043.0267    72.103464    5199.0133   0.75695797    41.274687    41.274687    41.274687     117.5907 
   80000        80000     6000    295.56659    758.21387    69737.746     5293.871   -3801.7999    3810.3848   -1562.2842    20958.428   -23197.943    1692.3263    1806.0795    6065.0151    8.5849164    5285.2861   0.76322962    41.161321    41.161321    41.161321    119.09196 
   81000        81000     6000    293.86939   -455.19145    70198.764    5391.7767   -3697.6856    3834.5252   -1671.6506    21174.079   -23200.114    1695.9679    1828.0507    4925.7622    136.83964    5254.9371   0.75821724    41.251824    41.251824    41.251824    120.55319 
   82000        82000     6000    293.78025   -868.51463    70462.279    5342.0546    -3701.139    3789.8506   -1622.2718     21123.69   -23202.557    1671.2862    1817.0216    4449.5515    88.711579     5253.343   0.75538166    41.303377    41.303377    41.303377    122.02058 
   83000        83000     6000    293.27123   -406.92869    70204.731    5300.7539   -3711.3597    3767.8728   -1696.0962    21186.647   -23201.911    1675.8507    1801.9493    4884.1143    56.513149    5244.2408   0.75815281    41.252993    41.252993    41.252993    123.50878 
   84000        84000     6000    294.00975    62.762665    69431.302    5361.2173   -3737.5256    3841.2959   -1677.4528    21143.534   -23203.607    1734.5303    1796.0507    5424.7698    103.77038    5257.4469   0.76659823    41.100941    41.100941    41.100941    125.00897 
   85000        85000     6000    296.45874    949.98512    68885.406    5200.2451    -3813.434    3712.4397    -1588.082    20980.609   -23205.961    1654.1383    1758.0762     6154.622    -100.9943    5301.2394   0.77267329    40.992941    40.992941    40.992941      126.506 
   86000        86000     6000    295.31196   -177.50569     70412.13    5500.9596   -3691.8166    3912.0433   -1595.6527      21103.7   -23199.863    1759.9664    1834.3419     5318.681    220.22669    5280.7329   0.75591966    41.293576    41.293576    41.293576     127.9968 
   87000        87000     6000    295.19157   -29.030551    68774.444    5352.4846   -3750.7411    3824.6457   -1626.6816    21082.004   -23206.063     1688.773    1835.3164    5323.3668    73.904515    5278.5801   0.77391995    40.970918    40.970918    40.970918    129.49519 
   88000        88000     6000    293.48386    -1074.432     70003.73    5332.0053   -3756.3894    3840.3516    -1654.676    21090.797    -23192.51    1710.8864    1823.2006    4235.0826    83.962212    5248.0431   0.76032968    41.213585    41.213585    41.213585     131.0035 
   89000        89000     6000    297.44965   -624.18429    69523.813    5339.0416   -3730.2797    3750.3625   -1607.7454    21081.465   -23203.999    1705.3827    1749.2043    4706.1603    20.082766    5318.9589   0.76557817    41.119188    41.119188    41.119188    132.47547 
   90000        90000     6000    294.25918   -931.41471    70236.001    5358.0039   -3718.6178    3814.7144    -1637.783    21117.925    -23198.76    1706.6371    1797.8993    4403.9371    96.096654    5261.9072   0.75781527    41.259117    41.259117    41.259117    133.98385 
   91000        91000     6000    295.13699   -971.72334    69269.224    5340.7929   -3743.6479    3806.8366   -1624.4726    21087.509   -23206.684    1711.0986    1782.7342    4359.1379    63.188693    5277.6042   0.76839194    41.068935    41.068935    41.068935    135.47293 
   92000        92000     6000       295.62   -545.06884    68893.627    5319.9686   -3734.9094    3768.6367   -1712.9099    21177.873   -23199.873    1740.3217    1705.3053    4772.3145    33.727287    5286.2413    0.7725811    40.994571    40.994571    40.994571    136.98706 
   93000        93000     6000     297.9037     1059.283    69080.262    5306.0222   -3778.9317    3757.8759   -1547.7383    20966.763   -23197.956    1656.5755    1789.0822    6373.2125   -21.055802     5327.078    0.7704938    41.031557    41.031557    41.031557    138.47511 
   94000        94000     6000     296.8368   -230.02261    70363.153     5415.882   -3718.0962    3825.9783   -1644.0206    21132.852   -23206.928    1717.7104    1801.7329    5179.8387    107.88209    5307.9999   0.75644583    41.283999    41.283999    41.283999     139.9427 
   95000        95000     6000    298.60383   -137.61123    69842.968    5365.5714   -3713.6018    3739.5755   -1621.0306    21112.956   -23205.527    1692.7754    1748.6554    5225.4023    25.973768    5339.5976   0.76207978    41.182012    41.182012    41.182012    141.42013 
   96000        96000     6000    297.58731    625.30873    69221.899    5248.9532   -3783.2207    3710.7535   -1617.1707    21038.932   -23204.982    1681.0456    1731.3414    5880.2214   -72.467162    5321.4204   0.76891728     41.05958     41.05958     41.05958    142.92684 
   97000        97000     6000    297.61283    261.83404    69960.677     5275.354   -3778.2789    3731.7561   -1584.8206    21005.017   -23198.476    1668.3839    1740.5201    5542.5045   -46.522751    5321.8768   0.76079758    41.205134    41.205134    41.205134    144.40235 
   98000        98000     6000    293.98092   -10.285431    68766.698    5336.7182   -3790.0477    3869.8346   -1675.4239    21091.784   -23206.407    1761.6993    1808.5151     5326.403    79.786847    5256.9313   0.77400711     40.96938     40.96938     40.96938     145.8846 
   99000        99000     6000    298.10214    555.78307    70189.734    5449.2937   -3735.1434    3853.8105   -1604.5542    21079.608   -23210.197    1676.0519    1842.1313    6018.2184    118.66717    5330.6265   0.75831479    41.250055    41.250055    41.250055    147.36222 
  100000       100000     6000    295.20395   -792.60863    68386.094    5200.2026   -3891.4291    3812.8303   -1635.6529     20948.68   -23204.456    1739.5079    1766.1471    4409.7015   -78.598785    5278.8014   0.77831487    40.893655    40.893655    40.893655    148.84123 
  101000       101000     6000    294.18971   -215.45292    69474.479    5283.1422   -3769.5727      3792.05   -1641.6277    21074.325    -23202.27    1681.3212    1807.6347    5064.8423    22.477323    5260.6649   0.76612182    41.109459    41.109459    41.109459    150.33326 
  102000       102000     6000    297.27291    12.094276    68890.147    5399.9234   -3782.7457    3866.8707   -1739.0974    21165.002    -23208.65    1722.3383    1835.6731    5412.0744    84.125031    5315.7984   0.77262012    40.993881    40.993881    40.993881    151.81204 
  103000       103000     6000    301.86116    293.46739    68916.908     5445.037   -3790.8328    3838.0249   -1712.6869    21125.909   -23204.055    1680.6041    1856.3369    5739.9959    47.192105    5397.8449    0.7723201    40.999189    40.999189    40.999189    153.35021 
  104000       104000     6000    295.19964   -77.958223    69972.962    5419.0316   -3734.5055    3874.8126     -1641.77    21109.169   -23201.905    1724.5758    1836.9957    5339.4764    140.30711    5278.7245   0.76066401    41.207546    41.207546    41.207546    154.82537 
  105000       105000     6000    296.32388    688.02644    69514.362    5186.8029   -3803.6335    3691.6084   -1657.4391    21060.978   -23207.173    1671.0571    1723.3146    5884.3212   -112.02505     5298.828   0.76568226    41.117324    41.117324    41.117324    156.33311 
  106000       106000     6000    289.20527   -953.26145    70309.501     5187.512   -3781.5817      3797.56   -1598.1467    21019.311   -23202.746    1733.8088    1756.0478    4210.0454    15.978268    5171.5337   0.75702306    41.273504    41.273504    41.273504    157.79383 
  107000       107000     6000    296.10045    143.26191     69856.74    5371.0122   -3763.1973    3839.3769   -1629.9506    21071.161   -23204.408    1773.3786    1770.7703    5516.9658    76.179618    5294.8326   0.76192954    41.184719    41.184719    41.184719    159.25678 
  108000       108000     6000    293.85634    771.26782    69401.575    5293.3173   -3735.8919    3774.5056   -1634.9966    21100.085    -23200.98     1693.989    1766.1104    6073.9566     38.61364    5254.7036   0.76692659    41.095075    41.095075    41.095075    160.74861 
  109000       109000     6000    291.29256    986.13336    68932.476    5187.1374   -3776.2647    3754.5436   -1674.9147    21098.044   -23199.394    1683.5594     1768.361    6178.5066   -21.721103    5208.8585   0.77214568    41.002276    41.002276    41.002276    162.26011 
  110000       110000     6000     294.5849   -412.40512    69932.281    5363.5926   -3737.5939    3833.4548   -1615.4967    21076.366   -23198.463    1751.1627    1780.9362    4942.9845    95.860885    5267.7317    0.7611065    41.199559    41.199559    41.199559    163.73908 
  111000       111000     6000    299.77857    620.68361     69886.51    5408.9554     -3759.44    3807.7912   -1648.7355    21090.254   -23200.959    1681.2345    1828.2797    6041.5705    48.351219    5360.6042   0.76160497    41.190568    41.190568    41.190568     165.2011 
  112000       112000     6000    294.19936   -127.96109    69814.601     5296.292   -3757.6929    3793.1474   -1585.9445    21030.905   -23202.654     1683.736    1798.3423    5166.0053     35.45447    5260.8376   0.76238942    41.176436    41.176436    41.176436    166.65577 
  113000       113000     6000    292.24023    -521.1706    68804.708    5301.0341   -3766.5506    3841.7802   -1669.0765    21103.344   -23200.818    1726.2712    1807.4002    4778.0675    75.229536    5225.8045   0.77357953    40.976927    40.976927    40.976927    168.11153 
  114000       114000     6000    293.29353   -859.12533    69572.422    5281.3481   -3751.0547    3787.7633   -1711.5078    21165.276   -23204.823    1689.8355    1802.4653    4409.6431    36.708601    5244.6395   0.76504328    41.128769    41.128769    41.128769    169.60318 
  115000       115000     6000    292.94508    -439.3883    68292.585    5163.7004   -3867.7022     3792.994   -1676.6473     21015.18   -23206.235    1718.2569    1756.5373    4726.0796   -74.708202    5238.4086   0.77938057    40.875008    40.875008    40.875008    171.10423 
  116000       116000     6000    295.75234   -97.852376     68777.23    5254.9306   -3813.1146    3779.4375   -1709.6884    21097.623    -23201.05    1698.4117    1788.8823    5156.7802   -33.677103    5288.6077   0.77388859    40.971471    40.971471    40.971471    172.56471 
  117000       117000     6000    300.83836    101.65245    69938.438    5393.3711   -3815.4586    3829.2745   -1648.8612    21034.952    -23201.55    1725.7616    1800.5842    5497.0546    13.815868    5379.5552   0.76103949    41.200768    41.200768    41.200768    174.01939 
  118000       118000     6000    291.13839   -651.58205    68662.709    5218.9491   -3829.6815     3842.529   -1691.5835    21066.002     -23204.1    1735.1196    1807.2663     4566.471     12.84745    5206.1016   0.77517934    40.948718    40.948718    40.948718    175.49144 
  119000       119000     6000     292.2936   -239.06871    69829.883    5275.4169   -3755.0468    3803.7048   -1650.8031    21100.043   -23204.286    1694.5609     1802.496      5031.95    48.657954     5226.759   0.76222258     41.17944     41.17944     41.17944    177.00117 
  120000       120000     6000    297.62812   -1518.8809    69689.379    5395.6065   -3753.3399    3826.7962   -1633.0876    21080.827    -23201.08    1723.5064    1795.1837    3851.8947    73.456273    5322.1502   0.76375933    41.151803    41.151803    41.151803    178.48747 
  121000       121000     6000    293.84464    231.23686    70117.001    5339.0467   -3740.1163    3824.6685   -1639.4017    21101.166   -23201.881     1684.965    1826.5527    5575.5059    84.552251    5254.4944    0.7591014    41.235802    41.235802    41.235802     179.9839 
  122000       122000     6000    287.81811    1564.5777    69468.699    5192.5113   -3797.5978    3843.3803   -1611.2603    21017.722   -23204.059     1702.275    1834.4693    6777.6315    45.782481    5146.7288   0.76618555    41.108319    41.108319    41.108319    181.48247 
  123000       123000     6000    293.54387    994.16013    69899.922    5340.2413   -3734.0704    3825.1955   -1636.2766    21099.643   -23197.437    1665.2186    1857.5515    6353.7067    91.125173    5249.1162   0.76145884    41.193203    41.193203    41.193203     182.9551 
  124000       124000     6000    299.61518   -191.93208    69351.126     5368.715   -3778.6299    3789.6624    -1638.914    21062.113   -23201.829    1666.8101    1797.6684     5174.592     11.03242    5357.6825   0.76748449    41.085115    41.085115    41.085115    184.44316 
  125000       125000     6000    294.04374      351.129    68177.758    5224.3757   -3837.4133    3803.7342   -1613.7187    20985.587   -23209.282    1713.8748    1786.8423    5573.5042   -33.679138    5258.0548   0.78069322    40.852086    40.852086    40.852086    185.91232 
  126000       126000     6000    291.42674   -297.93363    69505.657    5292.1564    -3764.491    3845.3897   -1623.7852    21064.871   -23205.576    1759.2022    1776.0934    4990.1504    80.898674    5211.2578   0.76577815    41.115608    41.115608    41.115608    187.39652 
  127000       127000     6000    293.70488    418.75975    69735.363    5251.6082    -3714.077      3713.69   -1597.3491    21088.457   -23205.185    1644.8061    1772.2798    5677.4948  -0.38704456    5251.9953    0.7632557    41.160852    41.160852    41.160852    188.88829 
  128000       128000     6000    299.36381    652.09685    68590.781    5327.3185    -3748.661    3722.7921    -1686.813    21139.737   -23201.585     1676.379    1749.7123    5979.6281   -25.868949    5353.1875   0.77599223    40.934415    40.934415    40.934415    190.35448 
  129000       129000     6000    295.10092    468.93248    68800.009     5345.882    -3763.019    3831.9419   -1639.7944    21081.568   -23204.792    1691.6901    1842.6599    5816.3983    68.922844    5276.9591   0.77363237    40.975994    40.975994    40.975994    191.84825 
  130000       130000     6000    290.38602    -217.0535    69304.067    5313.3594   -3769.1113     3889.823   -1657.7205    21094.117   -23205.508    1746.5182    1826.8369    5093.9772    120.71167    5192.6478   0.76800563     41.07582     41.07582     41.07582    193.31395 
  131000       131000     6000    295.60423   -1141.7288    69573.439    5301.7197   -3861.8335    3877.5941   -1638.7811    20981.877   -23204.929    1747.5307    1840.7162    4143.2564     15.76053    5285.9592   0.76503209    41.128969    41.128969    41.128969    194.80945 
  132000       132000     6000      295.054   -385.28537     69907.78    5299.5997   -3792.2926    3815.7722   -1634.8583    21043.601   -23201.035    1704.2362    1802.2982    4906.7884    23.479597    5276.1201   0.76137325    41.194747    41.194747    41.194747    196.27948 
  133000       133000     6000    291.48032   -1390.2892    68980.066    5184.2786   -3905.6093    3877.6719    -1703.434    21001.994   -23204.169    1752.2559    1820.7196    3785.6427   -27.937365    5212.2159   0.77161297    41.011709    41.011709    41.011709    197.76326 
  134000       134000     6000    293.46087   -491.69655    69888.405    5291.1711   -3797.1594    3840.6985   -1536.8779    20938.965   -23199.246    1756.7028    1769.0898     4790.009     43.53914    5247.6319   0.76158433    41.190941    41.190941    41.190941    199.26378 
  135000       135000     6000    293.90394    57.915845    69005.706    5128.5375   -3888.6246    3761.6072   -1623.9142    20942.803   -23207.513    1672.5011    1778.5356    5186.8227   -127.01736    5255.5549   0.77132627     41.01679     41.01679     41.01679    200.72103 
  136000       136000     6000    298.53553   -162.32465    69397.494    5310.4894   -3798.4799    3770.5929   -1687.9024    21095.108   -23205.686    1704.4447    1770.8315     5146.202   -27.887002    5338.3764    0.7669717    41.094269    41.094269    41.094269    202.18117 
  137000       137000     6000    297.12922   -302.35002     69127.23    5317.6386   -3759.4318    3763.8415   -1621.5357    21063.805   -23201.701    1710.7523    1758.8367    5012.8245    4.4096894     5313.229   0.76997029    41.040854    41.040854    41.040854    203.68023 
  138000       138000     6000    292.92928    -763.6617    70777.991     5301.759   -3730.1226    3793.7556   -1657.1862    21126.913   -23199.849    1726.1415    1759.5757    4513.4888    63.633008     5238.126   0.75201221    41.364973    41.364973    41.364973      205.161 
  139000       139000     6000    290.49635    329.54266    70187.898    5228.2143   -3763.9294     3797.523   -1583.2667    21032.393   -23213.056    1752.2778    1732.5403    5565.5403    33.593636    5194.6207   0.75833463    41.249695    41.249695    41.249695    206.67495 
  140000       140000     6000    294.40354   -665.63754    69038.286     5317.975   -3810.2694    3863.7558   -1661.9445    21051.135    -23199.46     1765.625     1797.595    4647.7761    53.486409    5264.4886   0.77096227    41.023244    41.023244    41.023244    208.18315 
  141000       141000     6000    292.35894   -569.13992    68940.651    5193.0448   -3870.1993    3835.3168   -1651.4332    20984.154   -23202.921    1736.8469    1786.5831    4620.8153   -34.882499    5227.9273   0.77205412    41.003896    41.003896    41.003896    209.68246 
  142000       142000     6000    293.55376   -254.52914    69573.795    5348.4243   -3737.3248     3836.456   -1657.0076    21117.995   -23198.312    1795.4499    1721.8338    5090.1631    99.131258     5249.293   0.76502818    41.129039    41.129039    41.129039    211.15021 
  143000       143000     6000     293.3312    270.97642      69363.1    5133.0527   -3770.9506    3658.6901   -1629.5209    21064.923   -23206.352    1645.9809      1716.15    5407.1697   -112.26045    5245.3132     0.767352    41.087479    41.087479    41.087479    212.59924 
  144000       144000     6000    297.16726    359.64298    69012.246    5293.9994   -3787.6898      3767.78   -1636.6765    21050.573   -23201.586    1740.9611     1710.295    5655.9703   -19.909807    5313.9092   0.77125317    41.018086    41.018086    41.018086    214.05471 
  145000       145000     6000    288.42677    29.753826    69577.164    5124.4189   -3825.4941    3792.3002   -1623.7026    21002.701   -23204.492    1735.5062    1751.6722    5154.6104   -33.193939    5157.6128   0.76499114    41.129703    41.129703    41.129703    215.53381 
  146000       146000     6000    296.17536   -225.76155    69938.571    5352.2892    -3731.264     3787.381   -1624.1579    21098.754    -23205.86    1707.5986    1789.0219    5122.0164    56.117046    5296.1721   0.76103805    41.200794    41.200794    41.200794    217.01604 
  147000       147000     6000    300.14366   -692.78811    69116.804     5345.907   -3844.3026    3823.0769   -1674.6139    21035.475   -23205.163    1735.2695    1777.5192    4647.5782   -21.225743    5367.1328   0.77008644     41.03879     41.03879     41.03879    218.51034 
  148000       148000     6000    288.40523   -5.5299729    69200.719      5114.42   -3832.6026    3789.7951   -1685.9899    21053.805   -23200.418    1692.8724    1801.6327     5108.839    -42.80749    5157.2275   0.76915261    41.055392    41.055392    41.055392    219.97336 
  149000       149000     6000     289.3891   -199.89816    69583.757    5197.4278   -3782.8022     3805.409   -1649.0283     21064.29   -23198.064    1715.0585    1800.3375    4994.5696     22.60675     5174.821   0.76491865    41.131002    41.131002    41.131002    221.43701 
  150000       150000     6000    294.83065   -221.02093    69214.044    5313.0001   -3806.3873    3847.2612   -1657.7294    21049.629   -23198.287    1753.4784    1789.5874    5089.8981    40.873961    5272.1262   0.76900453    41.058027    41.058027    41.058027    222.88202 
  151000       151000     6000    298.85626    142.71625    70171.156    5485.9252   -3767.8651    3909.6787   -1615.0483    21053.325   -23206.142    1739.0433    1868.7973    5631.9774    141.81366    5344.1116   0.75851556    41.246415    41.246415    41.246415    224.37313 
  152000       152000     6000    292.70992    439.53408    69070.315    5260.1039   -3843.3153    3869.2157   -1603.4886    20968.317   -23208.143    1771.5873    1790.6699    5702.8553     25.90042    5234.2035   0.77060477    41.029587    41.029587    41.029587    225.85184 
  153000       153000     6000    294.03248   -233.43561    70056.455    5323.6937   -3782.7991    3848.6394   -1575.2192    20988.243   -23195.823    1742.3219    1802.4754    5085.1922    65.840317    5257.8534   0.75975745    41.223929    41.223929    41.223929    227.34649 
  154000       154000     6000    294.08579   -358.76029    69654.058    5180.0259    -3887.257    3808.4762    -1615.136    20927.456   -23199.577    1705.6628     1783.808    4815.5854   -78.780766    5258.8067   0.76414663    41.144849    41.144849    41.144849     228.8294 
  155000       155000     6000    294.97774   -105.17818    69659.841    5343.6681   -3780.5128    3849.4246   -1597.4504    21022.383   -23205.445    1739.4207    1796.1162    5236.8158    68.911751    5274.7563   0.76408319    41.145988    41.145988    41.145988    230.32231 
  156000       156000     6000     297.9837    434.84306    69111.225    5321.2632   -3907.7205    3900.4752   -1610.6713    20905.663   -23202.712    1725.7987    1867.8149    5759.5486   -7.2453055    5328.5085   0.77014861    41.037686    41.037686    41.037686    231.78886 
  157000       157000     6000     301.3359   -120.08248    69822.347    5362.0116   -3841.0773    3814.6366   -1689.3217    21053.542   -23205.298     1670.805    1844.9225    5239.7331   -26.440713    5388.4523   0.76230485    41.177959    41.177959    41.177959    233.26148 
  158000       158000     6000    292.34499    309.29663    68491.581    5247.2569   -3878.9496    3898.5287   -1684.5978     21010.14   -23204.492    1768.6432    1830.0636     5556.207    19.579078    5227.6778   0.77711615    40.914671    40.914671    40.914671    234.74751 
  159000       159000     6000    295.31358    1207.6646    69359.478    5315.1352   -3775.5906     3809.964   -1659.9495    21087.698   -23203.339    1727.2695      1782.73    6536.7325    34.373421    5280.7618   0.76739208    41.086764    41.086764    41.086764    236.24442 
  160000       160000     6000    298.36917    307.78386    67865.388    5135.9105   -3886.3003    3686.8093   -1663.0098    20986.422   -23209.712    1644.4828    1761.5744    5440.5387   -199.49097    5335.4015   0.78428659      40.7896      40.7896      40.7896    237.75555 
  161000       161000     6000    297.48601    307.61807    69797.974    5280.4293   -3864.7615    3825.5819   -1645.9902    20986.171   -23204.943    1747.1105    1768.6539    5593.5635   -39.179596    5319.6089   0.76257104    41.173167    41.173167    41.173167    239.24779 
  162000       162000     6000    294.13548   -77.205067    68993.414    5221.7465   -3863.7383    3825.7896   -1600.5097    20939.884   -23203.113    1757.7204     1759.365    5144.0629   -37.948776    5259.6953   0.77146369    41.014354    41.014354    41.014354    240.72588 
  163000       163000     6000    293.96231    110.82729    69580.581    5398.5694   -3789.7053     3931.676   -1608.9601    21023.411   -23204.156     1801.865    1818.0496    5511.0326    141.97069    5256.5987   0.76495357    41.130376    41.130376    41.130376    242.21664 
  164000       164000     6000     291.6274    674.69116    68458.722    5181.3327   -3839.0009    3805.4877   -1720.9984    21086.359   -23204.361    1706.2864    1779.8371    5854.9445   -33.513259    5214.8459   0.77748915    40.908127    40.908127    40.908127    243.71252 
  165000       165000     6000    297.75602    231.75168    68501.519    5297.9957   -3883.7406     3857.299   -1616.2774    20937.334   -23204.797    1713.6003    1833.3533    5529.5213   -26.441586    5324.4373   0.77700341     40.91665     40.91665     40.91665    245.21217 
  166000       166000     6000    290.14648     -76.7431    68971.429    5149.3566   -3849.1033    3810.0954   -1667.2672    21017.596   -23199.432     1712.589    1791.0281    5072.1624   -39.007874    5188.3644    0.7717096    41.009997    41.009997    41.009997    246.69849 
  167000       167000     6000     296.7835   -1119.1054    68855.922    5284.1815   -3855.9519    3833.0865   -1675.9126    21023.848   -23203.887    1723.5546    1814.0007    4160.3837   -22.865359    5307.0469   0.77300415    40.987091    40.987091    40.987091    248.18875 
  168000       168000     6000    296.03226   -782.32936    68296.234    5188.0847   -3913.4097    3807.8811   -1689.8434    20982.116   -23205.682    1729.7531    1780.0154    4408.8608   -105.52859    5293.6133   0.77933893    40.875736    40.875736    40.875736    249.67137 
  169000       169000     6000    293.46031    299.33135    70752.858    5408.7959   -3736.4598    3897.6339   -1662.6932    21128.429   -23202.195    1762.7434    1830.0525    5717.6634    161.17408    5247.6219   0.75227935    41.360076    41.360076    41.360076    251.15702 
  170000       170000     6000     285.3059   -14.403247    70146.195     5035.907   -3855.3085    3789.4099   -1605.7368    20954.992   -23204.564    1696.3313    1791.7926    5021.1723   -65.898672    5101.8056   0.75878547    41.241524    41.241524    41.241524    252.63232 
  171000       171000     6000    296.12759    551.29475    70092.748    5354.3377   -3773.6678    3832.6876   -1571.5143    20998.568   -23200.722    1757.0922    1768.3508    5917.8881    59.019718    5295.3179   0.75936406    41.231047    41.231047    41.231047    254.11983 
  172000       172000     6000    288.16171    750.35012    69601.037    5098.9061   -3808.4702    3754.5034   -1645.0347    21044.091   -23207.527    1717.4412    1716.8002    5860.5563   -53.966896     5152.873   0.76472875    41.134407    41.134407    41.134407    255.62823 
  173000       173000     6000        299.7    224.24563    68818.391    5309.8176   -3854.4334    3805.0517   -1700.7525    21053.546   -23207.227    1737.8666    1752.3713    5534.8807   -49.381729    5359.1993   0.77342572    40.979643    40.979643    40.979643    257.11675 
  174000       174000     6000    295.14331    373.44722     69977.27    5306.4494   -3765.2352    3793.9675    -1606.512    21043.936    -23202.66    1673.9877    1815.9744    5687.5698    28.732274    5277.7172   0.76061717    41.208392    41.208392    41.208392    258.59502 
  175000       175000     6000    295.55706    416.61654    68938.857    5274.0272   -3786.9633    3775.8748   -1674.2228    21098.164   -23210.905    1689.8404    1768.4572    5692.8945   -11.088519    5285.1157   0.77207421    41.003541    41.003541    41.003541    260.08143 
  176000       176000     6000    296.74322   -215.24648    69169.123      5382.48   -3741.2494    3817.4029   -1687.0848    21145.573   -23199.737    1721.8415    1796.6637    5165.3478    76.153527    5306.3265   0.76950395    41.049143    41.049143    41.049143    261.57924 
  177000       177000     6000    295.56307   -821.44589    70473.859    5389.5043   -3740.1816    3844.4626   -1606.3239    21070.901   -23204.759    1717.1944    1826.1142    4545.2313    104.28102    5285.2233   0.75525754     41.30564     41.30564     41.30564    263.03535 
  178000       178000     6000    297.88127   -145.18387    69171.284    5309.7136    -3759.105    3742.1416   -1614.3345    21057.782   -23202.552    1725.3054    1712.8292    5163.2532   -16.963405     5326.677   0.76947992     41.04957     41.04957     41.04957    264.52149 
  179000       179000     6000    289.65574    -69.79465    69506.725    5159.3336    -3850.769    3830.5136    -1613.841    20964.092    -23201.02    1771.4383    1777.2276    5088.5839   -20.255381     5179.589   0.76576639    41.115819    41.115819    41.115819    266.00291 
  180000       180000     6000    298.43414    300.06954    69935.177     5312.902    -3832.943    3809.2818   -1616.3137    20981.254   -23197.884    1705.2436    1776.4492    5618.9528   -23.661258    5336.5633   0.76107498    41.200127    41.200127    41.200127    267.47586 
  181000       181000     6000    302.01566   -278.52228    69598.228    5392.9822   -3800.5523    3792.9269   -1609.0684    21008.013   -23199.497    1699.8508    1784.7734    5110.2769   -7.6254956    5400.6077   0.76475961    41.133853    41.133853    41.133853    268.95428 
  182000       182000     6000    292.71331    -361.8368    69334.711    5118.1002    -3883.617    3767.4531     -1551.68    20873.724   -23205.661    1704.8954    1733.2492    4752.2197   -116.16389    5234.2641   0.76766619    41.081873    41.081873    41.081873    270.45447 
  183000       183000     6000    295.42032     191.1484    69946.506    5289.4676   -3812.1086    3818.9055   -1565.7211    20953.716   -23200.104    1723.3626    1814.3326    5484.4577     6.796942    5282.6706   0.76095172    41.202352    41.202352    41.202352     271.9437 
  184000       184000     6000    296.63608    623.79957     68731.74    5222.3396   -3851.5009    3769.4299   -1624.6121    20976.284   -23203.173    1747.2463    1721.9276     5847.625   -82.071036    5304.4107   0.77440078    40.962436    40.962436    40.962436    273.42811 
  185000       185000     6000    292.25189   -107.89152    69499.608     5207.548   -3836.7301     3818.265   -1619.2161    20988.013   -23205.527    1743.3261    1762.5998    5098.1912   -18.465148    5226.0131    0.7658448    41.114415    41.114415    41.114415    274.89228 
  186000       186000     6000    298.49818   -446.73369    68341.448    5275.8554   -3896.7924    3834.9394    -1676.831    20988.509   -23208.471    1739.5823    1786.4064    4830.6005   -61.853021    5337.7085   0.77882333    40.884754    40.884754    40.884754     276.3791 
  187000       187000     6000    285.93091    3.7541097     68711.25    4929.4625   -3920.8906     3737.371   -1655.0639    20937.507   -23203.334    1707.7348    1734.5307    4933.2244   -183.51964    5112.9821   0.77463172    40.958365    40.958365    40.958365    277.86725 
  188000       188000     6000    293.73258    805.08843    69781.677    5283.7344   -3728.9331     3760.177   -1632.5921    21108.067   -23204.408    1671.0045    1781.1071    6103.0682    31.243868    5252.4906   0.76274913    41.169962    41.169962    41.169962    279.34175 
  189000       189000     6000     294.7155    99.432485    68446.906    5099.0346   -3839.9423    3668.9098   -1662.6167    21022.701   -23200.027    1633.2726    1739.6076    5198.2909    -171.0325    5270.0671   0.77762337    40.905773    40.905773    40.905773    280.81859 
  190000       190000     6000    289.33168    3.3915701    69855.591    5181.2394   -3791.2624    3798.7075   -1642.7608    21057.742   -23206.243    1686.7409    1811.9257    5184.6946    7.4451266    5173.7943   0.76194207    41.184493    41.184493    41.184493     282.3387 
  191000       191000     6000    293.46279   -722.94045    69632.359    5342.7837   -3802.7552    3897.8727   -1565.6906    20965.702   -23202.766    1771.5688    1817.4292    4608.6257    95.117462    5247.6662   0.76438475    41.140576    41.140576    41.140576    283.83622 
  192000       192000     6000    292.62336    761.94212    69931.693    5422.2468   -3631.6415    3821.2326   -1578.0961     21150.06   -23203.605    1714.9248    1799.2695    6199.3378    189.59107    5232.6557    0.7611129    41.199443    41.199443    41.199443    285.31401 
  193000       193000     6000    294.29435   -229.37037    70670.769    5236.3854   -3796.5967     3770.446   -1584.1004    20991.334   -23203.831    1702.0485     1762.299    4999.9824   -26.150646    5262.5361   0.75315316    41.344074    41.344074    41.344074    286.79398 
  194000       194000     6000    295.69984   -308.57641    68656.218    5306.4805   -3772.6527    3791.4643   -1649.5953    21080.273   -23203.331    1725.6403    1752.9116     4997.509    18.811575    5287.6689   0.77525264    40.947428    40.947428    40.947428    288.29657 
  195000       195000     6000    299.45577   -126.87647     69092.34    5402.0454   -3720.0023    3767.2157   -1733.0489    21214.537    -23201.49    1690.2463    1775.8199    5274.1995    47.213416     5354.832   0.77035911    41.033948    41.033948    41.033948    289.77984 
  196000       196000     6000    291.66192     471.5857    68778.441    5233.1005   -3787.5933    3805.2305   -1686.2871    21100.928   -23202.234    1676.0904    1825.8652    5706.1307    17.637174    5215.4633   0.77387496    40.971712    40.971712    40.971712    291.26063 
  197000       197000     6000    299.56949   -659.08826     68933.55    5339.4901   -3780.1873    3762.8119   -1693.1122    21111.533   -23198.608    1690.6394    1773.9072    4676.8921   -17.375415    5356.8655   0.77213365    41.002489    41.002489    41.002489    292.72416 
  198000       198000     6000    293.56796   -1133.4842    70562.549    5261.3037   -3765.7433    3777.5001   -1542.9484    20981.555    -23204.35    1703.3244    1753.3908    4094.8551    11.756755     5249.547   0.75430826     41.32296     41.32296     41.32296    294.17875 
  199000       199000     6000    294.81504   -689.05326    69894.659    5298.4511   -3788.0248    3814.6288   -1592.9556     21007.94   -23203.009    1706.7083     1788.941    4596.0702    26.604056     5271.847   0.76151618    41.192169    41.192169    41.192169    295.66688 
  200000       200000     6000    293.12433   -37.984158    69360.942     5246.018     -3751.14    3755.5441   -1616.7992    21068.354   -23202.695    1677.2945    1764.1105    5207.5949    4.4041411    5241.6139   0.76737588    41.087053    41.087053    41.087053    297.15002 
  201000       201000     6000     296.6937     293.9353    70919.355    5384.7956   -3719.1232    3798.4777   -1630.2809    21113.147   -23201.989    1708.5223    1771.9097    5688.8087    79.354538     5305.441   0.75051322    41.392494    41.392494    41.392494    298.73239 
  202000       202000     6000    289.88729    976.74373    69267.985    5234.8531   -3780.7767    3831.9003     -1638.59    21061.659   -23203.846     1741.961    1766.4968    6221.5621    51.123548    5183.7295   0.76840569     41.06869     41.06869     41.06869    300.24427 
  203000       203000     6000    289.23522     18.30365    69266.984    5164.2472   -3780.9431     3773.121   -1712.8034      21135.1   -23203.239     1696.524    1768.3216    5182.7373   -7.8220875    5172.0693   0.76841679    41.068492    41.068492    41.068492    301.71176 
  204000       204000     6000      293.145    416.00007    69813.082    5227.3871   -3762.2756    3747.6791   -1697.6288    21140.933    -23205.58    1674.9267    1774.8068    5650.9385    -14.59654    5241.9836   0.76240601    41.176137    41.176137    41.176137    303.18618 
  205000       205000     6000    296.76871   -770.48332    70346.405     5317.557    -3737.498    3748.2726   -1669.7037    21135.052   -23202.846    1697.4178    1752.9326    4527.0949    10.774623    5306.7824   0.75662593    41.280724    41.280724    41.280724    304.65013 
  206000       206000     6000    296.85811   -372.46832    70435.944    5475.2515   -3695.1248    3861.9953   -1663.2575    21174.562   -23206.429    1778.9765    1797.8773    5092.6386    166.87058    5308.3809   0.75566409    41.298231    41.298231    41.298231    306.12226 
  207000       207000     6000    293.04991   -208.87859    69581.952    5405.2872   -3687.0995    3852.1036   -1643.8141    21161.863   -23205.149    1737.2566    1811.6056    5193.3211    165.00411    5240.2831   0.76493849    41.130647    41.130647    41.130647    307.60059 
  208000       208000     6000    296.15783   -126.72353    69261.872    5259.5977   -3798.1722    3761.9112    -1656.187    21062.225    -23204.21     1696.558    1775.2454    5131.5926   -36.260923    5295.8586    0.7684735    41.067482    41.067482    41.067482    309.10243 
  209000       209000     6000    292.22159    508.43281    69445.352    5193.7061   -3805.6051    3773.8401    -1625.182     21025.84   -23206.263    1682.7753    1783.6993    5708.6414   -31.765079    5225.4712   0.76644314    41.103714    41.103714    41.103714    310.57589 
  210000       210000     6000    294.83696    854.37027    68881.087    5336.8588   -3766.4146    3831.0343    -1642.242    21079.768    -23203.94    1659.3352    1859.2808     6195.125    64.619709    5272.2391   0.77272175    40.992084    40.992084    40.992084     312.0765 
  211000       211000     6000    293.99501    768.92878    68938.637    5338.8481   -3749.3234    3830.9883   -1664.3926     21113.57   -23198.501    1687.3304    1828.7828    6111.9286    81.664871    5257.1833   0.77207668    41.003497    41.003497    41.003497    313.57521 
  212000       212000     6000     291.1488    764.71071    69114.117    5164.6352   -3755.9489    3714.2963   -1633.6838     21075.62   -23197.885    1682.1736    1733.9451    5935.4319   -41.652618    5206.2878   0.77011638    41.038258    41.038258    41.038258    315.05622 
  213000       213000     6000    294.29443    275.51283    70780.544    5390.1234   -3708.2292    3835.8151   -1582.3893     21071.09   -23196.929    1737.1055    1791.0129    5674.5247    127.58587    5262.5375   0.75198509     41.36547     41.36547     41.36547    316.53542 
  214000       214000     6000      296.937   -164.99893    69580.159    5351.3205   -3711.9503    3753.4791   -1659.9655    21152.385   -23204.369     1693.509    1758.4051     5183.887    41.528815    5309.7917   0.76495821    41.130293    41.130293    41.130293    318.00277 
  215000       215000     6000    295.03126   -608.96072    68987.355    5290.1466   -3758.8468    3773.2799   -1673.6976    21115.969   -23201.119      1691.38    1776.7888    4677.4652    14.433156    5275.7134   0.77153144    41.013154    41.013154    41.013154     319.4991 
  216000       216000     6000    298.65217    263.60982    68216.938    5361.0704   -3746.5902    3767.1985   -1704.4659    21161.144   -23203.268    1705.4949    1757.2383     5623.329    20.608337    5340.4621   0.78024484     40.85991     40.85991     40.85991    320.96471 
  217000       217000     6000    289.55839    242.18825    69371.815    5266.3239   -3795.1631    3883.6386   -1647.0056    21054.804   -23202.962    1771.8516    1793.0926    5511.3498    88.475554    5177.8483    0.7672556      41.0892      41.0892      41.0892    322.43831 
  218000       218000     6000    290.57712   -90.713636    69086.642    5273.6888   -3776.0041    3853.6278   -1599.9485     21022.77   -23198.826    1749.9373    1779.3525    5182.2896    77.623685    5196.0651   0.77042265     41.03282     41.03282     41.03282    323.90963 
  219000       219000     6000    300.65305   -1272.9155    69402.246    5496.3213   -3783.0434    3903.1232   -1658.8285    21080.948   -23205.163    1780.9251     1825.468    4207.9265    120.07977    5376.2416   0.76691918    41.095207    41.095207    41.095207    325.39113 
  220000       220000     6000    294.22387    1235.2538    69133.535    5346.7841   -3759.8019    3845.3102   -1655.6385    21099.393   -23203.556    1733.8442    1802.4203    6592.2185    85.508301    5261.2758   0.76990007    41.042101    41.042101    41.042101    326.88053 
  221000       221000     6000    296.10369    579.14026    69048.212    5235.8679   -3880.6057    3821.5831    -1644.857    20969.862    -23205.61    1757.4273    1756.2816    5819.0606   -59.022627    5294.8906   0.77085144     41.02521     41.02521     41.02521    328.37753 
  222000       222000     6000    295.14012    -239.2151    68565.908    5216.4482   -3863.8901    3802.6782   -1662.6588    21003.863   -23205.095     1687.252    1806.7497    4977.2419   -61.211853    5277.6601   0.77627374    40.929466    40.929466    40.929466    329.87889 
  223000       223000     6000    289.93942   -141.68599    69857.315     5264.571    -3790.609    3870.5181   -1620.1574     21030.67   -23201.122    1702.1908    1838.9395    5120.2216    79.909118    5184.6618   0.76192327    41.184832    41.184832    41.184832     331.3685 
  224000       224000     6000    291.33672   -949.65587    68647.639    5250.2561   -3801.8446    3842.4525   -1674.2869    21076.123   -23203.681    1728.2569    1803.5146     4299.503      40.6079    5209.6482   0.77534952    40.945722    40.945722    40.945722    332.84142 
  225000       225000     6000    297.91984   -537.12353    69781.237    5457.7585   -3718.4122    3848.8041   -1620.7821    21101.724   -23199.354     1747.745     1805.617    4911.1345    130.39186    5327.3667   0.76275394    41.169876    41.169876    41.169876    334.34572 
  226000       226000     6000    299.93946   -81.636933    69207.002    5336.4897   -3792.9631    3765.9714   -1719.6098    21126.788   -23200.141    1712.4768    1759.2148    5254.0924   -26.991686    5363.4813   0.76908278    41.056634    41.056634    41.056634    335.90862 
  227000       227000     6000    296.26479    169.34469    69374.629    5367.3381   -3776.1967    3845.7635   -1679.9221     21109.73   -23206.004    1775.4897    1770.5394     5538.674    69.566809    5297.7713   0.76722448    41.089756    41.089756    41.089756    337.38713 
  228000       228000     6000    299.10005    215.47157    69436.707    5450.6529   -3753.9615    3856.1433   -1673.3782    21120.854   -23201.437    1751.4937    1806.7734     5668.853    102.18178    5348.4711   0.76653856    41.102008    41.102008    41.102008    338.86596 
  229000       229000     6000    295.14659   -545.02614    69497.829    5368.7362   -3793.1691    3884.1295   -1623.9918    21033.094   -23202.271    1781.5913    1782.8129    4816.3225    90.960406    5277.7758   0.76586441    41.114064    41.114064    41.114064      340.382 
  230000       230000     6000    298.83786    623.04859    69015.317    5290.5214   -3830.0789    3776.8178   -1630.1858    21005.602   -23205.495    1704.3621    1774.6728    5917.6308   -53.261125    5343.7825   0.77121886    41.018694    41.018694    41.018694     341.8609 
  231000       231000     6000    293.79306   -677.71381    69319.834    5287.2946   -3779.4181    3813.1407   -1597.7512    21013.762   -23195.429    1723.5755     1785.178     4602.154    33.722543    5253.5721   0.76783095    41.078935    41.078935    41.078935    343.33976 
  232000       232000     6000    293.37696    392.24593    68896.966    5135.5146   -3865.9473    3755.3305   -1662.8896    21001.065   -23204.123    1700.5293    1737.4771      5529.64   -110.61681    5246.1314   0.77254365    40.995234    40.995234    40.995234    344.79851 
  233000       233000     6000    294.70024   -244.65672    69219.221    5308.1991   -3812.9383    3851.3432   -1673.8088    21065.103   -23204.232    1756.1915    1798.7587    5061.2203    38.404942    5269.7942   0.76894702    41.059051    41.059051    41.059051    346.28539 
  234000       234000     6000    301.77918    -302.7905     70132.46    5527.7262   -3736.4959    3867.8432   -1569.4511    21038.104   -23205.148    1704.4497    1844.3988     5218.029     131.3473    5396.3789   0.75893408    41.238832    41.238832    41.238832    347.75297 
  235000       235000     6000     296.7634    175.99459    70644.116    5346.6164    -3734.202     3774.131   -1598.2518    21066.293   -23202.243    1709.5982    1748.8547    5527.9387    39.929082    5306.6873   0.75343732    41.338876    41.338876    41.338876     349.1921 
  236000       236000     6000    293.79832    126.13295    69077.504    5346.2653   -3739.1963    3831.7955   -1618.6962    21073.442   -23193.942    1717.0061    1817.8293    5473.3347    92.599151    5253.6661   0.77052456     41.03101     41.03101     41.03101    350.65108 
  237000       237000     6000    291.31399   -544.98597     68967.12    5306.4316   -3726.8647    3824.0546   -1671.0481    21147.736   -23203.553    1764.4928    1763.6203    4758.2767    97.189879    5209.2417   0.77175781    41.009143    41.009143    41.009143    352.12968 
  238000       238000     6000    291.82376   -704.91683     69896.98    5321.7384    -3780.557    3883.9381   -1654.2714    21080.277   -23206.563    1744.6903    1840.1819    4603.1632    103.38112    5218.3572   0.76149089    41.192625    41.192625    41.192625    353.59155 
  239000       239000     6000    294.51487    406.80429    69176.098    5359.3552   -3749.9191    3842.7949    -1708.706    21158.635   -23199.848    1733.0604    1805.4929    5769.7647    92.875789    5266.4794   0.76942636    41.050522    41.050522    41.050522    355.03716 
  240000       240000     6000      289.532     -285.095     69759.79    5245.0356   -3792.1588    3859.8182   -1628.1422    21037.605   -23201.622    1788.2529    1772.4866    4954.9871    67.659362    5177.3762   0.76298844    41.165657    41.165657    41.165657    356.55601 
  241000       241000     6000    292.49463   -487.19271    69439.377    5214.5694   -3835.9511    3820.1669   -1612.1511     20985.79    -23209.59    1738.1184    1778.7023    4721.1884    -15.78419    5230.3536   0.76650909    41.102535    41.102535    41.102535    358.01484 
  242000       242000     6000     296.7059   -1117.6032    69301.592    5405.4542   -3741.0903    3840.8853    -1686.448    21144.355   -23198.997    1696.3321    1840.7055    4275.9008    99.795014    5305.6591   0.76803306    41.075331    41.075331    41.075331    359.48446 
  243000       243000     6000    290.72401   -119.66432    70037.298    5256.7809   -3793.3802    3851.4693   -1586.7177    20996.228   -23202.891    1741.4285    1808.9337    5134.5531    58.089113    5198.6918   0.75996527    41.220171    41.220171    41.220171    360.97425 
  244000       244000     6000    298.83112    207.12752    69693.075    5434.0717   -3764.0974    3854.5069   -1655.1216    21096.458   -23205.434    1769.6912     1776.957    5644.5965    90.409535    5343.6622   0.76371883     41.15253     41.15253     41.15253    362.43467 
  245000       245000     6000    297.68645    501.18626    69892.784    5311.0766   -3830.1542    3818.0376   -1623.3496    20992.959   -23199.763     1729.944    1772.5205     5821.943   -12.116579    5323.1931   0.76153661    41.191801    41.191801    41.191801    363.93162 
  246000       246000     6000     290.1213    -1293.522    69842.466    5246.6703   -3762.6079    3821.3641   -1677.1946    21122.351   -23207.764    1735.9933    1785.6067    3929.1137    58.756176    5187.9141   0.76208526    41.181913    41.181913    41.181913    365.44109 
  247000       247000     6000    296.04308   -605.07886    67749.646    5229.9801   -3914.8001    3850.9734   -1689.0364    20975.386    -23201.15    1750.0474    1796.8035    4632.1264   -63.826681    5293.8067   0.78562645    40.766398    40.766398    40.766398    366.94461 
  248000       248000     6000    293.59883    -333.6337    69493.599    5361.9731   -3714.0322    3825.9063   -1683.4773    21173.547   -23204.102    1751.4444    1776.0284    5023.8377    111.87418    5250.0989   0.76591103     41.11323     41.11323     41.11323    368.46956 
  249000       249000     6000    297.33099    169.66095    69034.923    5265.1148   -3900.8713    3849.1492   -1636.1339     20936.85   -23201.587     1764.572    1796.8679      5435.93   -51.722088    5316.8369   0.77099982    41.022578    41.022578    41.022578    369.93003 
  250000       250000     6000    298.71351    1329.1037    68523.061     5274.288   -3840.7917    3773.5207   -1656.3131    21022.416   -23206.894    1697.4935     1759.612    6602.5126   -67.270976     5341.559   0.77675914    40.920938    40.920938    40.920938     371.4054 
  251000       251000     6000    300.76001    149.24781    68923.533    5329.5461   -3844.7357    3796.1275   -1712.4732    21071.292   -23203.554    1699.4676    1796.5944    5479.5669   -48.608151    5378.1542   0.77224587    41.000502    41.000502    41.000502    372.90317 
  252000       252000     6000    297.49789   -248.23109    69268.561    5328.1931   -3848.4187    3856.7904   -1614.7568    20966.217   -23199.879     1770.591    1783.7592    5077.4274     8.371704    5319.8214   0.76839929    41.068804    41.068804    41.068804    374.39793 
  253000       253000     6000    293.26426   -626.44067    69470.967    5238.8359   -3821.3251    3816.0449   -1659.8216    21044.849   -23206.352    1732.7727    1779.5655    4604.1495   -5.2802691    5244.1162   0.76616054    41.108767    41.108767    41.108767    375.88103 
  254000       254000     6000       290.62   -98.542764    69657.901     5206.314    -3794.612    3804.0941   -1620.9436    21027.359   -23201.027    1733.2379    1767.3913    5106.2055    9.4820961    5196.8319   0.76410447    41.145606    41.145606    41.145606    377.36361 
  255000       255000     6000     299.1179    444.18382    69391.907    5369.2504   -3731.9642    3752.4242   -1578.0838    21051.067   -23204.947    1680.1118     1770.169    5818.7687     20.46007    5348.7903   0.76703344    41.093167    41.093167    41.093167    378.83879 
  256000       256000     6000     294.9602   -564.20557    69358.872    5390.0773   -3757.2618    3872.8964   -1631.8414    21077.334   -23202.754    1791.1177    1789.0317    4819.3676    115.63461    5274.4427   0.76739877    41.086645    41.086645    41.086645    380.31335 
  257000       257000     6000     300.3285    490.30032    69405.062    5473.4547   -3786.6912    3889.7079   -1618.3639    21033.307   -23201.634    1738.9445    1846.1978    5969.7375     103.0167     5370.438   0.76688806    41.095763    41.095763    41.095763    381.76192 
  258000       258000     6000    292.30242   -518.97385    69311.434    5280.4792   -3846.1086    3899.6711   -1625.0061     20985.85   -23206.952    1741.1214    1841.9792    4755.8817    53.562524    5226.9167     0.767924    41.077275    41.077275    41.077275    383.24579 
  259000       259000     6000    294.63642    94.827601    68972.238    5150.8189   -3859.7612    3741.9272   -1627.4515    20975.614   -23207.924    1683.5618    1753.8843    5246.2049   -117.83401    5268.6529   0.77170055    41.010158    41.010158    41.010158    384.71161 
  260000       260000     6000     297.1538   -504.27771    69050.709    5243.7634   -3870.1568    3800.2518   -1657.7533    20990.764   -23203.168    1666.0802    1822.3221    4735.9387   -69.904997    5313.6684   0.77082356    41.025705    41.025705    41.025705    386.18641 
  261000       261000     6000    294.21734   -852.09394    69057.563    5283.7894   -3862.4713    3885.1017   -1633.0795    20973.199    -23202.59    1747.9604    1836.3399    4425.6169    22.630452     5261.159   0.77074706    41.027062    41.027062    41.027062    387.66907 
  262000       262000     6000    296.44042   -1120.4979    69179.725    5380.2083   -3873.5047    3952.8012   -1670.9928    20996.346   -23198.858    1794.7298    1867.6441    4249.7208    79.296415    5300.9119   0.76938603     41.05124     41.05124     41.05124    389.14262 
  263000       263000     6000    297.21036   -635.82151    68984.877    5208.4124   -3920.9415    3814.6741   -1631.5027    20916.494   -23205.933    1715.5989    1791.0099    4568.7291   -106.26738    5314.6798   0.77155916    41.012663    41.012663    41.012663    390.61419 
  264000       264000     6000    292.09277    229.62323    69555.345    5307.2712   -3730.0309    3814.1343   -1649.5909    21116.371   -23196.811    1688.3744    1805.8689    5540.1995    84.103436    5223.1677    0.7652311    41.125403    41.125403    41.125403    392.11903 
  265000       265000     6000    290.57934   -438.21154    69103.718    5220.3249   -3873.1318    3897.3519   -1625.2253    20951.721   -23199.627    1795.6644    1794.3456    4778.6923    24.220108    5196.1048   0.77023227      41.0362      41.0362      41.0362    393.59643 
  266000       266000     6000    294.04153    822.79716    69545.019    5342.7985   -3811.3023    3896.0857    -1587.967    20978.141   -23201.476    1705.3671    1881.1989    6177.3146    84.783396    5258.0151   0.76534473    41.123368    41.123368    41.123368    395.07286 
  267000       267000     6000    294.35297    344.38902    68953.315    5191.4781   -3867.9829    3795.8766   -1565.7109    20902.623   -23204.895      1740.29    1771.0907    5537.8003   -72.106235    5263.5843   0.77191232    41.006407    41.006407    41.006407    396.53916 
  268000       268000     6000    298.14607   -527.75292    69863.229    5431.6306   -3779.5413    3879.7597   -1619.7192     21043.47   -23203.292    1755.4027    1836.2115    4893.9118    100.21843    5331.4121   0.76185877    41.185994    41.185994    41.185994    398.02879 
  269000       269000     6000    298.16072   -61.383978    69083.345    5371.6514   -3835.8425    3875.8198   -1556.3966    20922.765   -23202.211    1734.9021    1825.4394    5309.8064    39.977357     5331.674   0.77045941    41.032167    41.032167    41.032167    399.52648 
  270000       270000     6000    294.31858    64.106398     69644.17    5253.2452    -3811.227    3801.5029    -1585.171    20980.731   -23206.787    1710.7987    1777.6801    5318.3574   -9.7240887    5262.9693   0.76425512    41.142902    41.142902    41.142902    401.02358 
  271000       271000     6000    293.60793   -627.79635     68311.59    5165.3845   -3825.1755    3740.2983   -1682.5887    21056.604   -23199.191    1717.9242    1720.0875    4539.9396   -84.877152    5250.2617   0.77916373    40.878799    40.878799    40.878799    402.51967 
  272000       272000     6000    296.02625    -421.3782    69319.443    5404.9492   -3771.1747    3882.6182   -1677.0647    21107.379   -23201.489    1730.4234    1847.1394    4978.9556    111.44347    5293.5057   0.76783528    41.078857    41.078857    41.078857    404.04102 
  273000       273000     6000    291.12076   -15.724336    68667.562    5179.3784   -3855.0985    3828.6905   -1611.8732    20961.048   -23204.273     1712.059    1813.6865    5163.6313   -26.408048    5205.7864   0.77512456    40.949683    40.949683    40.949683    405.50477 
  274000       274000     6000    294.15449   -34.653098    68904.987    5180.0129   -3891.1536    3811.1314    -1640.251    20954.055   -23204.958     1713.931    1796.2036    5145.1897   -80.022179    5260.0351   0.77245372    40.996824    40.996824    40.996824    406.99836 
  275000       275000     6000    298.95435   -417.25942    67567.759    5250.9712   -3871.2369    3776.3425   -1669.1413     21001.96   -23204.056    1716.4425    1762.9821     4839.801   -94.894429    5345.8656   0.78774129    40.729884    40.729884    40.729884    408.47767 
[...]
 3936000      3936000     6000    295.27341   -1273.5955    70267.298    5493.9351   -3644.9909    3858.8825   -1627.9861    21178.134   -23195.139    1726.8726    1827.6969    4188.7844    213.89157    5280.0435   0.75747773    41.265244    41.265244    41.265244    5787.8502 
 3937000      3937000     6000    296.17501   -467.24295    70010.014    5391.0077   -3712.0726    3806.9145   -1658.5361    21151.072   -23204.608     1742.171    1766.2482    4913.9413    94.841925    5296.1658   0.76026143    41.214818    41.214818    41.214818    5789.3335 
 3938000      3938000     6000    292.89211   -54.292062    69107.456    5245.1943   -3744.9595    3752.6923     -1672.16    21125.848   -23198.647    1719.1546    1718.1599    5190.4754    7.7328626    5237.4614    0.7701906     41.03694     41.03694     41.03694    5790.7958 
 3939000      3939000     6000    294.46312    283.48225    69734.532    5329.3642   -3718.3217     3782.132   -1661.7379    21146.539   -23203.123    1670.7564    1806.5159    5617.6675    63.810251    5265.5539    0.7632648    41.160689    41.160689    41.160689    5792.2428 
 3940000      3940000     6000    298.50703   -34.146955    71468.165    5571.4768   -3627.9836    3861.5938   -1630.3716    21201.175   -23198.787    1727.4695    1822.3014    5535.8858    233.61015    5337.8667   0.74474997    41.498992    41.498992    41.498992    5793.7027 
 3941000      3941000     6000    295.74517    347.47974    70307.341    5347.6325   -3741.3154    3800.4684   -1589.2072    21046.198   -23198.306    1706.2239    1804.2899    5703.9245    59.153076    5288.4794   0.75704631    41.273081    41.273081    41.273081    5795.1546 
 3942000      3942000     6000    295.99291    539.78386    69704.562    5494.4363   -3658.3492    3859.8759   -1587.0679    21130.187   -23201.468    1773.8344    1784.8955    6043.1642    201.52676    5292.9096   0.76359297    41.154791    41.154791    41.154791    5796.5879 
 3943000      3943000     6000    298.44898      628.726    69275.642    5408.3167   -3709.5759    3781.0639   -1641.8358    21138.541   -23206.281    1700.6897    1777.9619    6043.5275    71.488055    5336.8286   0.76832075    41.070203    41.070203    41.070203    5798.0349 
 3944000      3944000     6000    296.32807    340.30152    69136.143    5317.5951   -3739.7702    3758.4624    -1672.233    21130.326   -23197.863    1711.5672    1740.5667    5660.7142    18.692188    5298.9029   0.76987103    41.042617    41.042617    41.042617     5799.489 
 3945000      3945000     6000    295.99502    744.19396    69251.359    5346.4661   -3758.2959    3811.8148   -1619.3415    21060.439   -23199.393    1731.0409    1784.6052    6098.0723     53.51887    5292.9473   0.76859017    41.065404    41.065404    41.065404     5800.951 
 3946000      3946000     6000     292.5753    16.605273    70085.688    5287.7254   -3696.2956    3752.2247   -1662.0003    21167.343   -23201.638    1652.4133    1792.3283    5304.6982    55.929156    5231.7963   0.75944056    41.229662    41.229662    41.229662    5802.4078 
 3947000      3947000     6000    296.34491    455.82403    69415.655    5352.3999   -3757.8894    3811.0854   -1667.4941    21113.538   -23203.934    1685.1011    1818.0752    5813.8562     53.19599    5299.2039   0.76677103    41.097854    41.097854    41.097854    5803.8564 
 3948000      3948000     6000    293.80676    879.31061    68888.858    5186.8666   -3785.4993    3718.5489   -1636.6293    21054.226   -23203.096    1680.8815     1715.721    6070.2865   -66.950446    5253.8171   0.77263457    40.993625    40.993625    40.993625     5805.298 
 3949000      3949000     6000    298.23241   -370.47992    70355.117      5338.79   -3754.7842    3760.6182   -1642.9227    21092.402   -23204.264    1703.3523    1752.7968    4958.6564     5.833959     5332.956   0.75653223    41.282428    41.282428    41.282428    5806.7597 
 3950000      3950000     6000     295.5248   -302.33484    68333.374    5190.3969   -3826.1701    3732.0282   -1698.9738    21073.739   -23200.935    1676.7581    1737.0557    4889.0984   -94.141851    5284.5388   0.77891534    40.883144    40.883144    40.883144    5808.2068 
 3951000      3951000     6000    293.70291    2253.5594    68902.554    5297.8156   -3734.4652    3780.3207   -1658.4717    21124.179   -23200.173    1666.9883    1795.5684    7562.3568    45.855567    5251.9601   0.77248099    40.996342    40.996342    40.996342    5809.6816 
 3952000      3952000     6000    289.90981    860.96505     68079.02    5099.3247   -3844.8866     3760.079   -1757.7918    21121.299   -23208.394    1641.1763    1816.2016    5954.1448   -84.807572    5184.1323    0.7818255    40.832355    40.832355    40.832355    5811.1589 
 3953000      3953000     6000    291.86251   -259.46226    68816.833    5244.1174   -3781.7058     3806.773    -1713.217    21128.912   -23197.401    1696.8838    1806.2507    4983.7152    25.067148    5219.0503   0.77344324    40.979334    40.979334    40.979334    5812.6103 
 3954000      3954000     6000    296.15342   -232.77425    68804.389    5256.1197   -3799.6598    3759.9998   -1636.2948    21040.534   -23203.899     1665.857     1788.536    5022.5444   -39.659992    5295.7797   0.77358312    40.976864    40.976864    40.976864    5814.0696 
 3955000      3955000     6000    292.53865   -506.09794    68857.205    5218.6151   -3843.6404    3831.1145   -1621.0832    20981.686   -23204.243    1735.5764    1785.2786    4710.3856    -12.52584     5231.141   0.77298975    40.987346    40.987346    40.987346     5815.538 
 3956000      3956000     6000    294.28219    512.78886    69401.911    5300.2655   -3820.9582    3858.9052   -1592.5392    20978.958   -23207.377    1763.1889    1777.2922    5819.2877    37.946947    5262.3186   0.76692289    41.095141    41.095141    41.095141    5816.9948 
 3957000      3957000     6000    290.03244    537.70878    69979.973    5175.0503   -3798.4937    3787.2188   -1645.3006    21056.187    -23209.38    1737.3144    1751.2125    5723.8284   -11.274834    5186.3251    0.7605878    41.208922    41.208922    41.208922     5818.477 
 3958000      3958000     6000    292.03017   -676.88097    69623.437    5222.4474   -3817.3285    3817.7276   -1646.1879    21030.284   -23201.424    1758.9229     1757.184    4535.1517   0.39911631    5222.0483   0.76448271    41.138819    41.138819    41.138819    5819.9276 
 3959000      3959000     6000    296.44868    418.17596    69675.255    5299.4154   -3779.1126    3777.4683   -1642.8231    21069.886   -23206.175    1689.1898    1778.0508    5724.3416   -1.6442567    5301.0596   0.76391416    41.149022    41.149022    41.149022    5821.3678 
 3960000      3960000     6000    291.22961   -165.46094    69242.439    5226.9711   -3757.0154    3776.2537   -1637.5174    21080.789   -23200.287    1726.8023    1762.6459    5059.8837    19.238363    5207.7327   0.76868918    41.063641    41.063641    41.063641    5822.8226 
 3961000      3961000     6000    295.58119    1023.2046    69411.433    5320.7852    -3745.731    3780.9691   -1629.4134    21088.984   -23205.302    1652.7831    1825.7614    6356.5697    35.238046    5285.5472   0.76681767    41.097021    41.097021    41.097021    5824.2593 
 3962000      3962000     6000    293.50724    -648.8992    70096.216    5303.6716   -3742.2941    3797.5046   -1596.2969    21055.687   -23201.684    1670.6731     1808.965     4640.314    55.210462    5248.4611   0.75932649    41.231727    41.231727    41.231727    5825.7466 
 3963000      3963000     6000    297.94966   -267.20582    70497.327    5333.1055   -3792.8019    3798.0075   -1612.8372    21017.033   -23196.998    1682.3738      1806.59    5058.3828    5.2055389    5327.8999   0.75500612    41.310224    41.310224    41.310224    5827.1972 
 3964000      3964000     6000    292.09441    34.493702    70139.417    5211.8146   -3754.1262    3742.7437   -1639.3546    21088.151   -23202.922    1672.3126    1774.6134    5247.0986   -11.382474    5223.1971   0.75885879    41.240196    41.240196    41.240196    5828.6653 
 3965000      3965000     6000     286.2836    651.91426     69154.98    5090.7274   -3815.3669    3786.8055   -1623.9497    21011.065   -23202.482    1671.5974    1804.1519    5748.2185   -28.561441    5119.2889   0.76966132    41.046345    41.046345    41.046345    5830.1254 
 3966000      3966000     6000    292.99721   -794.37777    70283.911    5386.5021   -3770.1979    3917.3592   -1636.6403    21068.386   -23201.944    1771.2724    1833.8224      4572.25    147.16127    5239.3409   0.75729869    41.268496    41.268496    41.268496    5831.5912 
 3967000      3967000     6000    296.51623   -170.05429    68989.201    5146.9424   -3844.6043    3689.2792   -1680.7093    21041.332   -23205.227    1731.8398    1657.7467    4975.8445   -155.32508    5302.2675    0.7715108    41.013519    41.013519    41.013519    5833.0454 
 3968000      3968000     6000    300.65816    583.62617    69662.732    5288.5996   -3810.2295    3722.4962   -1595.5236    20990.432   -23205.138    1710.4418    1695.0891    5881.5402   -87.733358     5376.333   0.76405148    41.146557    41.146557    41.146557    5834.5118 
 3969000      3969000     6000    297.00272    171.50087    69178.594    5357.5688   -3753.3772    3799.9792   -1703.1738    21152.437    -23202.64    1722.1053    1757.3597    5530.5958    46.601995    5310.9668    0.7693986    41.051016    41.051016    41.051016    5835.9741 
 3970000      3970000     6000     296.5243     1694.801    68500.076    5198.5241     -3785.81    3681.9224   -1637.0417    21052.468   -23201.236      1634.49    1723.5461     6891.636   -103.88766    5302.4117   0.77701977    40.916363    40.916363    40.916363    5837.4626 
 3971000      3971000     6000    295.21894    -606.0223    70327.453    5347.3437   -3738.0962    3806.3705   -1554.1146     21014.31   -23198.291    1731.4686    1769.9202    4725.7747    68.274255    5279.0695   0.75682982    41.277016    41.277016    41.277016    5838.9223 
 3972000      3972000     6000     292.3686    351.34238    70663.255    5314.4345   -3702.0756      3788.41   -1574.4495    21070.019   -23197.645    1712.3131     1782.318    5676.5108    86.334351    5228.1001   0.75323326    41.342609    41.342609    41.342609     5840.393 
 3973000      3973000     6000    298.80594    481.17398    69146.457    5311.0449   -3815.2368    3783.0698   -1622.5201    21012.076   -23204.793    1676.3246    1798.9512    5796.2752   -32.166949    5343.2118   0.76975619    41.044658    41.044658    41.044658    5841.8545 
 3974000      3974000     6000    295.60991    492.83075    70577.744    5494.7596   -3646.6285    3855.3273   -1569.4262     21125.21   -23202.412    1712.5974    1835.1934    6002.0322    208.69884    5286.0607   0.75414587    41.325926    41.325926    41.325926    5843.3121 
 3975000      3975000     6000    295.19259     775.0903    70106.361    5308.7746   -3784.5366     3814.713   -1568.0506    20988.453   -23204.939    1690.8911    1817.6167    6101.2497    30.176339    5278.5983    0.7592166    41.233716    41.233716    41.233716    5844.7599 
 3976000      3976000     6000    294.29878   -837.25001    70217.912    5299.3705   -3778.2201    3814.9753   -1637.6571    21062.468   -23203.031    1712.1629    1789.5603    4441.9795    36.755217    5262.6153   0.75801049    41.255574    41.255574    41.255574    5846.2143 
 3977000      3977000     6000    297.69867    26.595233      68782.4    5357.6737   -3722.5859    3756.8478   -1695.8819    21175.253   -23201.957    1707.8529    1723.8351    5384.3519    34.261916    5323.4118   0.77383042    40.972498    40.972498    40.972498    5847.6897 
 3978000      3978000     6000    285.85244    429.39455     69954.31    5141.4093   -3744.0853    3773.9156   -1621.4101     21081.26   -23203.935    1716.9267    1753.3309    5579.4827     29.83032     5111.579   0.76086683    41.203884    41.203884    41.203884     5849.174 
 3979000      3979000     6000    295.06934   -703.94002    69881.594    5369.7136   -3764.5157     3857.835   -1637.7226    21076.573   -23203.366    1712.6121    1818.1059    4652.2922    93.319271    5276.3943   0.76165855    41.189602    41.189602    41.189602    5850.6617 
 3980000      3980000     6000    299.14299    125.71066    69842.089     5464.879   -3734.8019     3850.442   -1610.1778    21075.715   -23200.339    1754.3041    1803.2196    5592.9248    115.64009    5349.2389   0.76208937    41.181839    41.181839    41.181839    5852.1104 
 3981000      3981000     6000    293.48144    729.73967    69765.951    5293.5064   -3735.1232    3780.6298   -1606.9512    21077.237   -23205.409    1687.2917    1786.9738    6035.9908    45.506613    5247.9998   0.76292106    41.166869    41.166869    41.166869    5853.5656 
 3982000      3982000     6000    298.41608   -32.156094    70736.839    5384.4743    -3710.887     3759.121   -1563.0317      21052.9   -23200.755    1730.9396    1732.2152    5351.3013    48.233966    5336.2403    0.7524497    41.356954    41.356954    41.356954    5855.0538 
 3983000      3983000     6000    298.69409   -341.45508    69112.926     5463.934   -3746.9305    3869.6526   -1607.2923     21063.18   -23202.818    1767.8319    1792.3914    5119.7673    122.72217    5341.2118   0.77012965    41.038023    41.038023    41.038023    5856.5382 
 3984000      3984000     6000    296.96163   -234.00095    69654.444    5318.2877   -3762.4291    3770.4847   -1606.9269    21046.883   -23202.386    1697.9943    1775.2049    5080.5805    8.0556285    5310.2321    0.7641424    41.144925    41.144925    41.144925    5858.0196 
 3985000      3985000     6000    296.67453   -288.37798    70632.301     5377.852   -3783.8055    3856.5593   -1567.4351    20990.256   -23206.626    1728.2736    1824.2612    5080.7939    72.753773    5305.0982   0.75356335    41.336571    41.336571    41.336571    5859.4924 
 3986000      3986000     6000    290.69658   -777.09538    69437.032     5305.387   -3723.1768    3830.3626   -1631.8186     21115.44   -23206.798    1702.4617     1816.011    4518.4475    107.18574    5198.2013   0.76653498    41.102072    41.102072    41.102072     5860.988 
 3987000      3987000     6000    293.96212    176.37356    69712.418     5431.681   -3700.0765    3875.1623   -1622.0218    21120.686   -23198.741    1717.6442    1833.2082    5610.9972    175.08576    5256.5953   0.76350692    41.156337    41.156337    41.156337    5862.4384 
 3988000      3988000     6000    299.69742   -1288.1701      69545.2    5243.9418   -3854.4614      3739.25   -1669.1696    21018.286   -23203.578    1704.3034    1726.1751    3937.4212   -115.21137    5359.1532   0.76534274    41.123404    41.123404    41.123404    5863.8976 
 3989000      3989000     6000    302.13409   -230.19584    69378.437    5413.6816   -3751.8265    3762.7828   -1663.8734    21116.033   -23203.986    1691.6827    1753.5339    5180.7664    10.956269    5402.7253   0.76718237    41.090507    41.090507    41.090507     5865.362 
 3990000      3990000     6000    293.98629    7.4088816    68620.031    5230.6069   -3822.2974    3795.8769   -1644.7102    21021.576   -23199.163    1694.4545    1784.2308    5238.0214   -26.420495    5257.0274   0.77566146    40.940232    40.940232    40.940232    5866.8432 
 3991000      3991000     6000     296.2813   -564.51443    69315.002    5248.4395   -3845.8652    3796.2381   -1683.6065    21040.953   -23203.211    1713.7285    1783.7749    4677.7785   -49.627089    5298.0666   0.76788447     41.07798     41.07798     41.07798    5868.3124 
 3992000      3992000     6000    294.37771    -642.4115    70243.087    5463.2826   -3622.0153    3821.2712   -1616.7028    21194.219   -23199.531    1696.9416     1821.192    4805.1812    199.25586    5264.0267   0.75773881    41.260504    41.260504    41.260504    5869.7879 
 3993000      3993000     6000    297.11452    384.58972    68960.777    5319.9342   -3773.9882    3780.9564    -1651.625    21078.561   -23200.924    1696.8246    1760.0111    5706.7246    6.9681627     5312.966    0.7718288    41.007886    41.007886    41.007886    5871.2569 
 3994000      3994000     6000    293.78721    1030.2647    70213.355    5297.4877   -3741.1469    3785.1672    -1564.644    21022.146   -23198.649    1668.7368    1791.0428    6352.4682    44.020248    5253.4675   0.75805968    41.254682    41.254682    41.254682     5872.733 
 3995000      3995000     6000    295.60441   -611.30626    69175.516    5343.5469   -3785.8942    3843.4786   -1638.5522    21056.319   -23203.661    1734.0095    1809.9149    4726.8282     57.58444    5285.9624   0.76943284    41.050407    41.050407    41.050407    5874.1896 
 3996000      3996000     6000    294.88008   -367.13347    68983.104    5328.6038   -3799.7174    3855.3112   -1607.2565    21012.699    -23205.16    1751.4007    1797.2792      4959.25    55.593759      5273.01   0.77157899    41.012311    41.012311    41.012311    5875.6561 
 3997000      3997000     6000    292.24362    -485.6122    69460.714    5240.1506   -3824.5512    3838.8366   -1604.0275    20984.808   -23205.332    1724.1027    1811.8351     4748.219    14.285364    5225.8652   0.76627364    41.106744    41.106744    41.106744    5877.1278 
 3998000      3998000     6000     288.9109    208.54286    68827.643    5082.0328    -3886.919    3802.6819   -1637.6723    20958.657   -23207.903    1701.2394    1788.0006    5291.3641   -84.237038    5166.2699   0.77332175    40.981479    40.981479    40.981479    5878.5925 
 3999000      3999000     6000    299.85801     1686.043    69105.817    5351.2252   -3827.1225     3816.323   -1656.2101    21035.841   -23206.754    1691.7442    1816.6719    7050.4825   -10.799584    5362.0248   0.77020888    41.036615    41.036615    41.036615    5880.0652 
 4000000      4000000     6000    294.09796    359.34223    68624.122    5245.1963   -3821.2519    3807.4238   -1656.6294    21038.884   -23203.507    1671.5498    1826.3953    5604.8305   -13.828042    5259.0243   0.77561523    40.941046    40.941046    40.941046    5881.5451 
Loop time of 5881.56 on 48 procs for 4000000 steps with 6000 atoms

Performance: 58.760 ns/day, 0.408 hours/ns, 680.092 timesteps/s
99.4% CPU use with 48 MPI tasks x no OpenMP threads

MPI task timing breakdown:
Section |  min time  |  avg time  |  max time  |%varavg| %total
---------------------------------------------------------------
Pair    | 2969.7     | 3191       | 3464.6     | 304.3 | 54.25
Bond    | 77.448     | 78.42      | 79.767     |   5.3 |  1.33
Kspace  | 1465.2     | 1740.5     | 1959.8     | 412.5 | 29.59
Neigh   | 289.01     | 289.59     | 289.98     |   1.7 |  4.92
Comm    | 341.73     | 356.06     | 377.84     |  42.3 |  6.05
Output  | 0.32405    | 0.32663    | 0.37166    |   1.2 |  0.01
Modify  | 166.9      | 199.26     | 217.89     |  92.8 |  3.39
Other   |            | 26.44      |            |       |  0.45

Nlocal:    125 ave 137 max 107 min
Histogram: 2 2 2 4 7 5 4 9 5 8
Nghost:    3725.9 ave 3756 max 3689 min
Histogram: 1 2 1 6 12 7 4 6 6 3
Neighs:    39497.9 ave 46469 max 31282 min
Histogram: 2 2 5 6 11 2 4 4 5 7

Total # of neighbors = 1895897
Ave neighs/atom = 315.983
Ave special neighs/atom = 5
Neighbor list builds = 177087
Dangerous builds = 0
unfix                   NPT4
write_data		Data.NPTRelax2
PPPM initialization ...
  using 12-bit tables for long-range coulomb (../kspace.cpp:323)
  G vector (1/distance) = 0.233245
  grid = 15 15 15
  stencil order = 5
  estimated absolute RMS force accuracy = 0.0337445
  estimated relative force accuracy = 0.000101621
  using double precision KISS FFT
  3d grid and FFT values/proc = 1000 90

Total wall time: 1:38:02
