File Handled by LAMMPS Data Class 
 
20 atoms 
19 bonds 
36 angles 
51 dihedrals 
 
2 atom types 
2 bond types 
3 angle types 
5 dihedral types 
 
-5 5 xlo xhi 
-2 2 ylo yhi 
-1 1 zlo zhi 
 
Masses 
 
1 12.01
2 1.008

 
Pair Coeffs 
 
1 0.1094 3.39967
2 0.0157 2.64953

 
Bond Coeffs 
 
1 303.1 1.535
2 337.3 1.092

 
Angle Coeffs 
 
1 63.21 110.63
2 46.37 110.05
3 39.43 108.35

 
Dihedral Coeffs 
 
1 0.2 -1 1
2 0.25 -1 2
3 0.18 1 3
4 0.16 1 3
5 0.15 1 3

 
Atoms 
 
1 1 1 -0.0922 3.207 -0.148 0
2 1 1 -0.0805 1.866 0.598 -0
3 1 1 -0.0795 0.673 -0.372 0
4 1 1 -0.0795 -0.673 0.372 -0
5 1 1 -0.0805 -1.866 -0.598 0
6 1 1 -0.0922 -3.207 0.148 -0
7 1 2 0.0326 4.062 0.567 -0
8 1 2 0.0326 3.306 -0.795 0.901
9 1 2 0.0326 3.306 -0.796 -0.901
10 1 2 0.0386 1.812 1.256 -0.9
11 1 2 0.0386 1.812 1.257 0.899
12 1 2 0.0386 0.732 -1.029 0.9
13 1 2 0.0386 0.732 -1.03 -0.899
14 1 2 0.0386 -0.732 1.029 -0.9
15 1 2 0.0386 -0.732 1.03 0.899
16 1 2 0.0386 -1.812 -1.256 0.9
17 1 2 0.0386 -1.812 -1.257 -0.899
18 1 2 0.0326 -4.062 -0.567 0
19 1 2 0.0326 -3.306 0.795 -0.901
20 1 2 0.0326 -3.306 0.796 0.901

 
Bonds 
 
1 2 1 7
2 2 1 8
3 2 1 9
4 2 2 10
5 2 2 11
6 2 3 12
7 2 3 13
8 2 4 14
9 2 4 15
10 2 5 16
11 2 5 17
12 2 6 18
13 2 6 19
14 2 6 20
15 1 1 2
16 1 2 3
17 1 3 4
18 1 4 5
19 1 5 6

 
Angles
 
1 2 1 2 10
2 2 1 2 11
3 2 2 1 7
4 2 2 1 8
5 2 2 1 9
6 2 2 3 12
7 2 2 3 13
8 2 3 2 10
9 2 3 2 11
10 2 3 4 14
11 2 3 4 15
12 2 4 3 12
13 2 4 3 13
14 2 4 5 16
15 2 4 5 17
16 2 5 4 14
17 2 5 4 15
18 2 5 6 18
19 2 5 6 19
20 2 5 6 20
21 2 6 5 16
22 2 6 5 17
23 3 7 1 8
24 3 7 1 9
25 3 8 1 9
26 3 10 2 11
27 3 12 3 13
28 3 14 4 15
29 3 16 5 17
30 3 18 6 19
31 3 18 6 20
32 3 19 6 20
33 1 1 2 3
34 1 2 3 4
35 1 3 4 5
36 1 4 5 6

 
Dihedrals
 
1 4 1 2 3 12
2 4 1 2 3 13
3 4 2 3 4 14
4 4 2 3 4 15
5 4 7 1 2 3
6 4 8 1 2 3
7 4 9 1 2 3
8 4 3 4 5 16
9 4 3 4 5 17
10 4 4 3 2 10
11 4 4 3 2 11
12 4 4 5 6 18
13 4 4 5 6 19
14 4 4 5 6 20
15 4 5 4 3 12
16 4 5 4 3 13
17 4 6 5 4 14
18 4 6 5 4 15
19 5 7 1 2 10
20 5 7 1 2 11
21 5 8 1 2 10
22 5 8 1 2 11
23 5 9 1 2 10
24 5 9 1 2 11
25 5 10 2 3 12
26 5 10 2 3 13
27 5 11 2 3 12
28 5 11 2 3 13
29 5 12 3 4 14
30 5 12 3 4 15
31 5 13 3 4 14
32 5 13 3 4 15
33 5 14 4 5 16
34 5 14 4 5 17
35 5 15 4 5 16
36 5 15 4 5 17
37 5 16 5 6 18
38 5 16 5 6 19
39 5 16 5 6 20
40 5 17 5 6 18
41 5 17 5 6 19
42 5 17 5 6 20
43 1 1 2 3 4
44 2 1 2 3 4
45 3 1 2 3 4
46 1 2 3 4 5
47 2 2 3 4 5
48 3 2 3 4 5
49 1 3 4 5 6
50 2 3 4 5 6
51 3 3 4 5 6
